OMP_NUM_THREADS = 32
MKL_NUM_THREADS = 1
PYSCF_MAX_MEMORY = 819200
TMPDIR = /central/scratch/yangjunjie//hg1212/47401592/
PYSCF_TMPDIR = /central/scratch/yangjunjie//hg1212/47401592/

/home/junjiey/anaconda3/envs/fftisdf/bin/python
2.8.0
1.13.1
1.26.4
WARNING!
  Very diffused basis functions are found in the basis set. They may lead to severe
  linear dependence and numerical instability.  You can set  cell.exp_to_discard=0.1
  to remove the diffused Gaussians whose exponents are less than 0.1.

#INFO: **** input file is /central/home/junjiey/work/fftisdf-benchmark-new/test/hg1212-fftisdf/main.py ****
import os, sys
import time

from libdmet.utils.iotools import read_poscar
import libdmet.utils.logger as log

TMPDIR = os.getenv("TMPDIR", None)
DATA_PATH = os.getenv("DATA_PATH", None)
PYSCF_MAX_MEMORY = os.getenv("PYSCF_MAX_MEMORY", 4000)
PYSCF_MAX_MEMORY = int(PYSCF_MAX_MEMORY)

log.verbose = "DEBUG1"

start = time.time()

# this is the number of doped holes
nelec_dop = 0

cell = read_poscar(fname="./Hg1212-2x2.vasp")

for ke_cutoff in [50, 100, 150, 200]:
    cell.basis = 'cc-pvdz.dat'
    cell.pseudo = {
                'Cu1': 'GTH-PBE-q19', 
                'Cu2': 'GTH-PBE-q19',
                'O1': 'gth-pbe',
                'O2': 'gth-pbe',
                'Cu3': 'GTH-PBE-q19', 
                'Cu4': 'GTH-PBE-q19',
                'O3': 'gth-pbe',
                'O4': 'gth-pbe',
                'Hg': 'gth-pbe', 
                'Ba': 'gth-pbe',
                'Ca': 'gth-pbe'}

    kmesh = [1, 1, 1]
    cell.spin = 0
    cell.verbose = 5
    cell.precision = 1e-8
    cell.ke_cutoff = ke_cutoff
    cell.max_memory = PYSCF_MAX_MEMORY * 0.6
    cell.build()

    kpts = cell.get_kpts(kmesh)

    from fft_isdf_new import ISDF
    df_obj = ISDF(cell, kpts=kpts)
    df_obj.c0 = 5.0
    df_obj.tol = 1e-8
    df_obj.verbose = 10
    df_obj._isdf = os.path.join(TMPDIR, "tmp.chk")

    from utils import scf
    scf(cell, kmesh=kmesh, df_obj=df_obj, tmp=TMPDIR, chkfile="hg1212-fftisdf-%d.chk" % ke_cutoff)
#INFO: ******************** input file end ********************


System: uname_result(system='Linux', node='hpc-81-37.cm.cluster', release='5.14.0-427.13.1.el9_4.x86_64', version='#1 SMP PREEMPT_DYNAMIC Wed Apr 10 10:29:16 EDT 2024', machine='x86_64')  Threads 32
Python 3.9.0 (default, Nov 15 2020, 14:28:56) 
[GCC 7.3.0]
numpy 1.26.4  scipy 1.13.1  h5py 3.12.1
Date: Mon Feb 17 22:56:41 2025
PySCF version 2.8.0
PySCF path  /home/junjiey/anaconda3/envs/fftisdf/lib/python3.9/site-packages/pyscf

[ENV] PYSCF_TMPDIR /central/scratch/yangjunjie//hg1212/47401592/
[ENV] PYSCF_MAX_MEMORY 819200
[ENV] PYSCF_EXT_PATH /home/junjiey/packages/pyscf-forge/pyscf-forge-yangjunjie-non-orth/
[CONFIG] conf_file None
[INPUT] verbose = 5
[INPUT] max_memory = 491520.0 
[INPUT] num. atoms = 48
[INPUT] num. electrons = 464
[INPUT] charge = 0
[INPUT] spin (= nelec alpha-beta = 2S) = 0
[INPUT] symmetry False subgroup None
[INPUT] Mole.unit = A
[INPUT] Symbol           X                Y                Z      unit          X                Y                Z       unit  Magmom
[INPUT]  1 Cu1    1.927600000000   1.927600000000   4.760811090000 AA    3.642636077712   3.642636077712   8.996629090892 Bohr   0.0
[INPUT]  2 Cu1    5.782800000000   5.782800000000   4.760811090000 AA   10.927908233135  10.927908233135   8.996629090892 Bohr   0.0
[INPUT]  3 Cu2    1.927600000000   5.782800000000   4.760811090000 AA    3.642636077712  10.927908233135   8.996629090892 Bohr   0.0
[INPUT]  4 Cu2    5.782800000000   1.927600000000   4.760811090000 AA   10.927908233135   3.642636077712   8.996629090892 Bohr   0.0
[INPUT]  5 O1     1.927600000000   3.855200000000   4.770943170000 AA    3.642636077712   7.285272155423   9.015775947164 Bohr   0.0
[INPUT]  6 O1     3.855200000000   5.782800000000   4.770943170000 AA    7.285272155423  10.927908233135   9.015775947164 Bohr   0.0
[INPUT]  7 O1     5.782800000000   3.855200000000   4.770943170000 AA   10.927908233135   7.285272155423   9.015775947164 Bohr   0.0
[INPUT]  8 O1     3.855200000000   1.927600000000   4.770943170000 AA    7.285272155423   3.642636077712   9.015775947164 Bohr   0.0
[INPUT]  9 O1     0.000000000000   1.927600000000   4.770943170000 AA    0.000000000000   3.642636077712   9.015775947164 Bohr   0.0
[INPUT] 10 O1     1.927600000000   7.710400000000   4.770943170000 AA    3.642636077712  14.570544310846   9.015775947164 Bohr   0.0
[INPUT] 11 O1     7.710400000000   5.782800000000   4.770943170000 AA   14.570544310846  10.927908233135   9.015775947164 Bohr   0.0
[INPUT] 12 O1     5.782800000000   0.000000000000   4.770943170000 AA   10.927908233135   0.000000000000   9.015775947164 Bohr   0.0
[INPUT] 13 O2     1.927600000000   1.927600000000   1.985887680000 AA    3.642636077712   3.642636077712   3.752783829348 Bohr   0.0
[INPUT] 14 O2     1.927600000000   5.782800000000   1.985887680000 AA    3.642636077712  10.927908233135   3.752783829348 Bohr   0.0
[INPUT] 15 O2     5.782800000000   1.927600000000   1.985887680000 AA   10.927908233135   3.642636077712   3.752783829348 Bohr   0.0
[INPUT] 16 O2     5.782800000000   5.782800000000   1.985887680000 AA   10.927908233135  10.927908233135   3.752783829348 Bohr   0.0
[INPUT] 17 Cu3    1.927600000000   1.927600000000   7.904288910000 AA    3.642636077712   3.642636077712  14.936941249337 Bohr   0.0
[INPUT] 18 Cu3    5.782800000000   5.782800000000   7.904288910000 AA   10.927908233135  10.927908233135  14.936941249337 Bohr   0.0
[INPUT] 19 Cu4    1.927600000000   5.782800000000   7.904288910000 AA    3.642636077712  10.927908233135  14.936941249337 Bohr   0.0
[INPUT] 20 Cu4    5.782800000000   1.927600000000   7.904288910000 AA   10.927908233135   3.642636077712  14.936941249337 Bohr   0.0
[INPUT] 21 O3     1.927600000000   3.855200000000   7.894156830000 AA    3.642636077712   7.285272155423  14.917794393065 Bohr   0.0
[INPUT] 22 O3     3.855200000000   5.782800000000   7.894156830000 AA    7.285272155423  10.927908233135  14.917794393065 Bohr   0.0
[INPUT] 23 O3     5.782800000000   3.855200000000   7.894156830000 AA   10.927908233135   7.285272155423  14.917794393065 Bohr   0.0
[INPUT] 24 O3     3.855200000000   1.927600000000   7.894156830000 AA    7.285272155423   3.642636077712  14.917794393065 Bohr   0.0
[INPUT] 25 O3     0.000000000000   1.927600000000   7.894156830000 AA    0.000000000000   3.642636077712  14.917794393065 Bohr   0.0
[INPUT] 26 O3     1.927600000000   7.710400000000   7.894156830000 AA    3.642636077712  14.570544310846  14.917794393065 Bohr   0.0
[INPUT] 27 O3     7.710400000000   5.782800000000   7.894156830000 AA   14.570544310846  10.927908233135  14.917794393065 Bohr   0.0
[INPUT] 28 O3     5.782800000000   0.000000000000   7.894156830000 AA   10.927908233135   0.000000000000  14.917794393065 Bohr   0.0
[INPUT] 29 O4     1.927600000000   1.927600000000  10.679212320000 AA    3.642636077712   3.642636077712  20.180786510881 Bohr   0.0
[INPUT] 30 O4     1.927600000000   5.782800000000  10.679212320000 AA    3.642636077712  10.927908233135  20.180786510881 Bohr   0.0
[INPUT] 31 O4     5.782800000000   1.927600000000  10.679212320000 AA   10.927908233135   3.642636077712  20.180786510881 Bohr   0.0
[INPUT] 32 O4     5.782800000000   5.782800000000  10.679212320000 AA   10.927908233135  10.927908233135  20.180786510881 Bohr   0.0
[INPUT] 33 Hg     1.927600000000   1.927600000000   0.000000000000 AA    3.642636077712   3.642636077712   0.000000000000 Bohr   0.0
[INPUT] 34 Hg     5.782800000000   5.782800000000   0.000000000000 AA   10.927908233135  10.927908233135   0.000000000000 Bohr   0.0
[INPUT] 35 Hg     1.927600000000   5.782800000000   0.000000000000 AA    3.642636077712  10.927908233135   0.000000000000 Bohr   0.0
[INPUT] 36 Hg     5.782800000000   1.927600000000   0.000000000000 AA   10.927908233135   3.642636077712   0.000000000000 Bohr   0.0
[INPUT] 37 Ba     0.000000000000   3.855200000000   2.786322000000 AA    0.000000000000   7.285272155423   5.265385474850 Bohr   0.0
[INPUT] 38 Ba     3.855200000000   7.710400000000   2.786322000000 AA    7.285272155423  14.570544310846   5.265385474850 Bohr   0.0
[INPUT] 39 Ba     3.855200000000   3.855200000000   2.786322000000 AA    7.285272155423   7.285272155423   5.265385474850 Bohr   0.0
[INPUT] 40 Ba     7.710400000000   0.000000000000   2.786322000000 AA   14.570544310846   0.000000000000   5.265385474850 Bohr   0.0
[INPUT] 41 Ba     0.000000000000   3.855200000000   9.878778000000 AA    0.000000000000   7.285272155423  18.668184865379 Bohr   0.0
[INPUT] 42 Ba     3.855200000000   7.710400000000   9.878778000000 AA    7.285272155423  14.570544310846  18.668184865379 Bohr   0.0
[INPUT] 43 Ba     3.855200000000   3.855200000000   9.878778000000 AA    7.285272155423   7.285272155423  18.668184865379 Bohr   0.0
[INPUT] 44 Ba     7.710400000000   0.000000000000   9.878778000000 AA   14.570544310846   0.000000000000  18.668184865379 Bohr   0.0
[INPUT] 45 Ca     0.000000000000   3.855200000000   6.332550000000 AA    0.000000000000   7.285272155423  11.966785170114 Bohr   0.0
[INPUT] 46 Ca     3.855200000000   7.710400000000   6.332550000000 AA    7.285272155423  14.570544310846  11.966785170114 Bohr   0.0
[INPUT] 47 Ca     3.855200000000   3.855200000000   6.332550000000 AA    7.285272155423   7.285272155423  11.966785170114 Bohr   0.0
[INPUT] 48 Ca     7.710400000000   0.000000000000   6.332550000000 AA   14.570544310846   0.000000000000  11.966785170114 Bohr   0.0
[INPUT] ---------------- BASIS SET ---------------- 
[INPUT] l, kappa, [nprim/nctr], expnt,             c_1 c_2 ...
[INPUT] Hg
[INPUT] 0    0    [2    /1   ]  1.9157            0.135789
                                0.979308          -0.4520937
[INPUT] 0    0    [1    /1   ]  0.150255             1
[INPUT] 0    0    [1    /1   ]  0.054019             1
[INPUT] 1    0    [2    /1   ]  2.173806          -0.008329602
                                0.867935          0.04694467
[INPUT] 1    0    [1    /1   ]  0.34654              1
[INPUT] 1    0    [1    /1   ]  0.138363             1
[INPUT] 2    0    [3    /1   ]  3.674806          0.02455544
                                1.622342          -0.6047205
                                0.768788          -0.6547334
[INPUT] 2    0    [1    /1   ]  0.339247             1
[INPUT] 2    0    [1    /1   ]  0.136379             1
[INPUT] 3    0    [2    /1   ]  1.330141          0.5428473
                                0.507359          0.8398314
[INPUT] Cu1
[INPUT] 0    0    [4    /2   ]  9.083669          -0.3622183 0.1093857
                                2.375895          0.7613242 -0.1645715
                                0.936687          0.5169596 0.03951353
                                0.116029          -0.08984813 -0.6615456
[INPUT] 0    0    [1    /1   ]  0.041075             1
[INPUT] 1    0    [5    /2   ]  11.566615         -0.1354626 0.02324231
                                4.918638          0.4749338 -0.075312
                                2.290556          0.709813 -0.02250031
                                1.043427          0.4923407 -0.1498897
                                0.429044          0.09926123 0.1645767
[INPUT] 1    0    [1    /1   ]  0.13904              1
[INPUT] 2    0    [3    /1   ]  8.082843          -0.3663286
                                3.149999          -0.5868172
                                1.067441          -0.6124219
[INPUT] 2    0    [1    /1   ]  0.308911             1
[INPUT] 3    0    [2    /1   ]  4.078302          -0.4962922
                                1.072255          -0.8681555
[INPUT] Cu3
[INPUT] 0    0    [4    /2   ]  9.083669          -0.3622183 0.1093857
                                2.375895          0.7613242 -0.1645715
                                0.936687          0.5169596 0.03951353
                                0.116029          -0.08984813 -0.6615456
[INPUT] 0    0    [1    /1   ]  0.041075             1
[INPUT] 1    0    [5    /2   ]  11.566615         -0.1354626 0.02324231
                                4.918638          0.4749338 -0.075312
                                2.290556          0.709813 -0.02250031
                                1.043427          0.4923407 -0.1498897
                                0.429044          0.09926123 0.1645767
[INPUT] 1    0    [1    /1   ]  0.13904              1
[INPUT] 2    0    [3    /1   ]  8.082843          -0.3663286
                                3.149999          -0.5868172
                                1.067441          -0.6124219
[INPUT] 2    0    [1    /1   ]  0.308911             1
[INPUT] 3    0    [2    /1   ]  4.078302          -0.4962922
                                1.072255          -0.8681555
[INPUT] O1
[INPUT] 0    0    [5    /1   ]  14.482841         -0.03658934
                                6.284704          -0.1303224
                                1.164884          0.3769821
                                0.468441          0.5431582
                                0.184961          0.208414
[INPUT] 0    0    [1    /1   ]  0.221262             1
[INPUT] 1    0    [5    /1   ]  10.213949         0.06086918
                                3.622324          0.1870524
                                1.299051          0.3714779
                                0.463791          0.4256889
                                0.157848          0.208873
[INPUT] 1    0    [1    /1   ]  0.27467              1
[INPUT] 2    0    [1    /1   ]  1.200187             1
[INPUT] O4
[INPUT] 0    0    [5    /1   ]  14.482841         -0.03658934
                                6.284704          -0.1303224
                                1.164884          0.3769821
                                0.468441          0.5431582
                                0.184961          0.208414
[INPUT] 0    0    [1    /1   ]  0.221262             1
[INPUT] 1    0    [5    /1   ]  10.213949         0.06086918
                                3.622324          0.1870524
                                1.299051          0.3714779
                                0.463791          0.4256889
                                0.157848          0.208873
[INPUT] 1    0    [1    /1   ]  0.27467              1
[INPUT] 2    0    [1    /1   ]  1.200187             1
[INPUT] Ba
[INPUT] 0    0    [3    /2   ]  4.860079          -0.02877241 0.02157408
                                1.399001          0.3828487 -0.2577906
                                0.40271           -0.784284 0.3891714
[INPUT] 0    0    [1    /1   ]  0.115922             1
[INPUT] 0    0    [1    /1   ]  0.033369             1
[INPUT] 1    0    [4    /1   ]  3.592628          0.04674179
                                1.573935          -0.351962
                                0.689543          0.5167405
                                0.30209           0.7478454
[INPUT] 1    0    [1    /1   ]  0.132346             1
[INPUT] 1    0    [1    /1   ]  0.042656             1
[INPUT] 2    0    [5    /1   ]  1.680976          0.05054502
                                0.883691          -0.07506956
                                0.464558          -0.05025319
                                0.244219          -0.4749195
                                0.128386          0.1435246
[INPUT] 2    0    [1    /1   ]  0.067493             1
[INPUT] Cu2
[INPUT] 0    0    [4    /2   ]  9.083669          -0.3622183 0.1093857
                                2.375895          0.7613242 -0.1645715
                                0.936687          0.5169596 0.03951353
                                0.116029          -0.08984813 -0.6615456
[INPUT] 0    0    [1    /1   ]  0.041075             1
[INPUT] 1    0    [5    /2   ]  11.566615         -0.1354626 0.02324231
                                4.918638          0.4749338 -0.075312
                                2.290556          0.709813 -0.02250031
                                1.043427          0.4923407 -0.1498897
                                0.429044          0.09926123 0.1645767
[INPUT] 1    0    [1    /1   ]  0.13904              1
[INPUT] 2    0    [3    /1   ]  8.082843          -0.3663286
                                3.149999          -0.5868172
                                1.067441          -0.6124219
[INPUT] 2    0    [1    /1   ]  0.308911             1
[INPUT] 3    0    [2    /1   ]  4.078302          -0.4962922
                                1.072255          -0.8681555
[INPUT] O2
[INPUT] 0    0    [5    /1   ]  14.482841         -0.03658934
                                6.284704          -0.1303224
                                1.164884          0.3769821
                                0.468441          0.5431582
                                0.184961          0.208414
[INPUT] 0    0    [1    /1   ]  0.221262             1
[INPUT] 1    0    [5    /1   ]  10.213949         0.06086918
                                3.622324          0.1870524
                                1.299051          0.3714779
                                0.463791          0.4256889
                                0.157848          0.208873
[INPUT] 1    0    [1    /1   ]  0.27467              1
[INPUT] 2    0    [1    /1   ]  1.200187             1
[INPUT] Ca
[INPUT] 0    0    [4    /2   ]  7.213557          -0.04811677 0.06509227
                                3.953199          0.2795449 -0.3375291
                                0.887945          -0.5055939 0.5085903
                                0.381928          -0.4403097 0.318967
[INPUT] 0    0    [1    /1   ]  0.044801             1
[INPUT] 1    0    [4    /2   ]  5.522531          0.06327636 0.004842917
                                1.446307          -0.5437431 -0.003188125
                                0.605733          -0.788295 -0.06033881
                                0.239083          -0.280026 0.09655471
[INPUT] 1    0    [1    /1   ]  0.062765             1
[INPUT] 2    0    [4    /1   ]  3.010924          0.04928622
                                1.064269          0.1087188
                                0.31668           0.210131
                                0.175804          -0.03737671
[INPUT] 2    0    [1    /1   ]  0.073715             1
[INPUT] O3
[INPUT] 0    0    [5    /1   ]  14.482841         -0.03658934
                                6.284704          -0.1303224
                                1.164884          0.3769821
                                0.468441          0.5431582
                                0.184961          0.208414
[INPUT] 0    0    [1    /1   ]  0.221262             1
[INPUT] 1    0    [5    /1   ]  10.213949         0.06086918
                                3.622324          0.1870524
                                1.299051          0.3714779
                                0.463791          0.4256889
                                0.157848          0.208873
[INPUT] 1    0    [1    /1   ]  0.27467              1
[INPUT] 2    0    [1    /1   ]  1.200187             1
[INPUT] Cu4
[INPUT] 0    0    [4    /2   ]  9.083669          -0.3622183 0.1093857
                                2.375895          0.7613242 -0.1645715
                                0.936687          0.5169596 0.03951353
                                0.116029          -0.08984813 -0.6615456
[INPUT] 0    0    [1    /1   ]  0.041075             1
[INPUT] 1    0    [5    /2   ]  11.566615         -0.1354626 0.02324231
                                4.918638          0.4749338 -0.075312
                                2.290556          0.709813 -0.02250031
                                1.043427          0.4923407 -0.1498897
                                0.429044          0.09926123 0.1645767
[INPUT] 1    0    [1    /1   ]  0.13904              1
[INPUT] 2    0    [3    /1   ]  8.082843          -0.3663286
                                3.149999          -0.5868172
                                1.067441          -0.6124219
[INPUT] 2    0    [1    /1   ]  0.308911             1
[INPUT] 3    0    [2    /1   ]  4.078302          -0.4962922
                                1.072255          -0.8681555

Ewald components = 514.671494873007, -1896.43816646742, 440.44678037039
nuclear repulsion = -941.319891224022
number of shells = 304
number of NR pGTOs = 1976
number of NR cGTOs = 952
basis = cc-pvdz.dat
ecp = {}
CPU time:         6.62
lattice vectors  a1 [14.570544311, 0.000000000, 0.000000000]
                 a2 [0.000000000, 14.570544311, 0.000000000]
                 a3 [0.000000000, 0.000000000, 23.933570340]
dimension = 3
low_dim_ft_type = None
Cell volume = 5081.12
rcut = 37.04881233010331 (nimgs = [3 3 2])
lattice sum = 447 cells
precision = 1e-08
pseudo = {'Cu1': 'GTH-PBE-q19', 'Cu2': 'GTH-PBE-q19', 'O1': 'gth-pbe', 'O2': 'gth-pbe', 'Cu3': 'GTH-PBE-q19', 'Cu4': 'GTH-PBE-q19', 'O3': 'gth-pbe', 'O4': 'gth-pbe', 'Hg': 'gth-pbe', 'Ba': 'gth-pbe', 'Ca': 'gth-pbe'}
ke_cutoff = 50
    = [49 49 79] mesh (189679 PWs)
Density of valence part of ANO basis will be used as initial guess for Hg
Density of valence part of ANO basis will be used as initial guess for Ba
Density of valence part of ANO basis will be used as initial guess for Ca
Big error detected in the electron number of initial guess density matrix (Ne/cell = 457.562)!
  This can cause huge error in Fock matrix and lead to instability in SCF for low-dimensional systems.
  DM is normalized wrt the number of electrons 464.0


******** <class 'fft_isdf_new.InterpolativeSeparableDensityFitting'> ********
mesh = [49 49 79] (189679 PWs)
len(kpts) = 1
    kpts = [[0. 0. 0.]]
<class 'fft_isdf_new.InterpolativeSeparableDensityFitting'> does not have attributes  tol c0 blksize kmesh

WARN: ke_cutoff/mesh (50 / [49 49 79]) is not enough for FFTDF to get integral accuracy 1e-08.
Coulomb integral error is ~ 6.2e+03 Eh.
Recommended ke_cutoff/mesh are 1200.94 / [229 229 375].

kmesh = [1 1 1]

WARN: The parent grid might be too coarse.

Pivoted Cholesky rank = 8381, nip = 4760, estimated error = 5.07e-03
nip = 4760, cisdf =   5.00
    CPU time for get interpolating vectors     74.65 sec
blksize =  644829
nkpt * nip * 16 * blksize =  49.11 GB

nkpt = 1, nao = 952
ngrid = 189679, blksize = 644829
Saving eta_kpt to /central/scratch/yangjunjie/hg1212/47401592/ynzc0has
eta_kpt.nbytes = 1.44e+01 GB
blksize = 644829, ngrid = 189679
    CPU time for aoR_loop: [       0,   189679]    259.18 sec, wall time     28.27 sec
eta_q.nbytes = 1.44e+01 GB
    CPU time for solving Coulomb kernel   1842.14 sec, wall time     80.75 sec
Finished solving Coulomb kernel for q =   1 /   1, rank = 4280 / 4760
Saving FFTISDF results to /central/scratch/yangjunjie//hg1212/47401592/tmp.chk
    CPU time for building ISDF   2376.39 sec, wall time    137.48 sec


******** <class 'pyscf.pbc.scf.addons.SmearingKRHF'> ********
method = SmearingKRHF
initial guess = minao
damping factor = 0
level_shift factor = 0
DIIS = <class 'pyscf.scf.diis.CDIIS'>
diis_start_cycle = 1
diis_space = 8
diis_damp = 0
SCF conv_tol = 1e-06
SCF conv_tol_grad = None
SCF max_cycles = 50
direct_scf = True
direct_scf_tol = 1e-13
chkfile to save SCF result = /central/scratch/yangjunjie/hg1212/47401592/tmpjdx71741
max_memory 491520 MB (current use 1122 MB)


******** PBC SCF flags ********
N kpts = 1
kpts = [[0. 0. 0.]]
Exchange divergence treatment (exxdiv) = None
Smearing method = fermi
DF object = <fft_isdf_new.InterpolativeSeparableDensityFitting object at 0x7f40d8fcba30>
Set gradient conv threshold to 0.001
    CPU time for vj and vk     59.87 sec, wall time     26.73 sec
E1 = -2870.7082988710913  E_coul = (898.9809192516971+5.313068030930396e-16j)
init E= -2913.04727084342
    CPU time for initialize scf   1043.55 sec, wall time     61.77 sec
    Fermi level -1.47543  Sum mo_occ_kpts = 464.00000000000006  should equal nelec = 464
    sigma = 0.1  Optimized mu = -1.46572368271  entropy = 40.0215777807
     k-point                  mo_energy/mo_occ
   0 ( 0.000  0.000  0.000)   [-45.137782 -40.089009 -39.130703 -36.900425 -35.603419 -34.385027
 -32.087922 -31.513163 -30.689066 -30.189373 -29.202809 -29.004483
 -28.248787 -28.111901 -27.188318 -25.661001 -24.929248 -24.720866
 -24.401737 -23.958606 -22.749682 -22.059776 -19.730613 -19.344858
 -18.628316 -17.439438 -16.634681 -16.476158 -15.975908 -15.816943
 -15.656193 -15.2967   -15.144836 -14.9698   -14.859551 -14.799572
 -14.761774 -14.719406 -14.517061 -14.405682 -14.333399 -14.243148
 -14.1019   -13.743614 -13.202361 -12.394374 -11.916371 -11.627802
 -11.518199 -11.400704 -11.264536 -11.149252 -11.108047 -11.019235
 -10.825858 -10.648236 -10.575878 -10.551497 -10.3567   -10.304191
 -10.231473 -10.152006 -10.034053  -9.975251  -9.879295  -9.727617
  -9.466315  -9.336151  -9.118281  -9.033331  -8.880466  -8.742991
  -8.67812   -8.628912  -8.417075  -8.275691  -8.188796  -8.121596
  -7.971202  -7.874413  -7.764545  -7.710887  -7.59268   -7.426472
  -7.29102   -7.221796  -7.191737  -7.047773  -7.008254  -6.877593
  -6.826158  -6.80536   -6.772281  -6.680732  -6.617746  -6.592341
  -6.519214  -6.505589  -6.432888  -6.314474  -6.300603  -6.243883
  -6.18177   -6.146462  -6.085539  -6.015739  -5.958291  -5.947955
  -5.881319  -5.701656  -5.66408   -5.607296  -5.507262  -5.433036
  -5.361946  -5.344762  -5.223535  -5.128364  -5.020697  -4.971949
  -4.896007  -4.820129  -4.781534  -4.752472  -4.734719  -4.688554
  -4.596038  -4.572954  -4.500254  -4.449038  -4.383914  -4.373015
  -4.291394  -4.238282  -4.213246  -4.174275  -4.108461  -4.066372
  -3.965139  -3.945552  -3.911378  -3.879555  -3.837411  -3.739535
  -3.723776  -3.690518  -3.6307    -3.585117  -3.543015  -3.518622
  -3.467546  -3.441726  -3.420987  -3.385215  -3.34633   -3.30619
  -3.279254  -3.267107  -3.230104  -3.178219  -3.12676   -3.094774
  -3.045602  -3.013176  -2.981594  -2.946419  -2.907714  -2.893561
  -2.876213  -2.861817  -2.823061  -2.820667  -2.763798  -2.735234
  -2.707064  -2.682977  -2.658185  -2.64837   -2.619499  -2.615603
  -2.535234  -2.507696  -2.485229  -2.450788  -2.422258  -2.411659
  -2.397349  -2.351039  -2.318294  -2.280776  -2.277814  -2.25783
  -2.207596  -2.191357  -2.169042  -2.127633  -2.100043  -2.08923
  -2.06245   -2.045488  -2.024177  -2.003525  -1.971233  -1.949901
  -1.942431  -1.909319  -1.898875  -1.860573  -1.848001  -1.834191
  -1.819323  -1.799817  -1.770433  -1.754946  -1.740094  -1.718733
  -1.708169  -1.698552  -1.673039  -1.671765  -1.647705  -1.629998
  -1.62532   -1.607517  -1.592781  -1.572228  -1.567055  -1.550791
  -1.536654  -1.518542  -1.490744  -1.475426  -1.449648  -1.435148
  -1.421012  -1.409441  -1.396202  -1.361786  -1.358683  -1.341123
  -1.326824  -1.300513  -1.290525  -1.275346  -1.262565  -1.226187
  -1.218002  -1.203492  -1.192344  -1.184084  -1.167673  -1.138165
  -1.1209    -1.119475  -1.090776  -1.082867  -1.070302  -1.03963
  -1.027127  -1.011404  -0.999688  -0.996753  -0.989646  -0.978462
  -0.960702  -0.941582  -0.926343  -0.918778  -0.910634  -0.898897
  -0.883151  -0.879687  -0.857003  -0.84515   -0.839316  -0.825448
  -0.822175  -0.80691   -0.789728  -0.782531  -0.773005  -0.761666
  -0.74047   -0.730685  -0.714278  -0.70866   -0.693163  -0.692201
  -0.682609  -0.673657  -0.661995  -0.644574  -0.629563  -0.622038
  -0.600904  -0.589185  -0.565175  -0.56111   -0.544315  -0.538804
  -0.509791  -0.498979  -0.473163  -0.448992  -0.443957  -0.439094
  -0.435726  -0.411108  -0.408176  -0.383039  -0.35929   -0.339198
  -0.335382  -0.323224  -0.305514  -0.302423  -0.269482  -0.257159
  -0.243626  -0.227077  -0.218443  -0.203291  -0.193426  -0.176285
  -0.166445  -0.161932  -0.154337  -0.138217  -0.127662  -0.116756
  -0.110597  -0.091633  -0.088668  -0.082475  -0.074597  -0.06827
  -0.056472  -0.051746  -0.036003  -0.03433   -0.024726  -0.010667
   0.00485    0.015153   0.01995    0.033776   0.048605   0.055299
   0.065618   0.072933   0.081836   0.088213   0.104156   0.115241
   0.126077   0.147648   0.155714   0.169041   0.18265    0.188491
   0.200187   0.210845   0.239395   0.243093   0.260093   0.272425
   0.290711   0.308619   0.321934   0.329133   0.344448   0.365152
   0.373126   0.384544   0.386959   0.405629   0.440764   0.452712
   0.460846   0.483202   0.498072   0.507198   0.517314   0.52836
   0.538728   0.549846   0.568814   0.584773   0.597071   0.610143
   0.630501   0.639344   0.664403   0.665344   0.677346   0.696391
   0.707843   0.712796   0.72749    0.740641   0.752834   0.763007
   0.776752   0.790793   0.79934    0.818082   0.821586   0.846017
   0.852669   0.869047   0.883971   0.895221   0.901702   0.919857
   0.932615   0.945218   0.961015   0.975598   0.981456   0.998295
   1.017068   1.029068   1.036713   1.041759   1.04788    1.060293
   1.069842   1.077552   1.092048   1.106494   1.107654   1.135715
   1.152313   1.158262   1.1728     1.184505   1.192231   1.212019
   1.220349   1.233975   1.24557    1.253956   1.267921   1.27631
   1.284481   1.286796   1.295716   1.300211   1.311307   1.323989
   1.336318   1.34245    1.352049   1.353847   1.358961   1.368338
   1.379752   1.384987   1.387672   1.394618   1.398015   1.403425
   1.404998   1.407353   1.417858   1.422504   1.429001   1.435092
   1.436479   1.451242   1.456635   1.461434   1.466551   1.475713
   1.477507   1.488556   1.496043   1.502248   1.514139   1.525938
   1.535091   1.551149   1.559184   1.565834   1.581102   1.602615
   1.61919    1.653879   1.662494   1.678408   1.687419   1.692296
   1.705378   1.717395   1.725549   1.727474   1.741706   1.746425
   1.760372   1.768159   1.780546   1.785189   1.78945    1.799246
   1.809567   1.829723   1.83804    1.854868   1.868014   1.875543
   1.906218   1.915559   1.92893    1.948068   1.954633   1.96368
   1.974399   2.001765   2.014457   2.027837   2.030074   2.037303
   2.051766   2.056481   2.05916    2.063145   2.086395   2.096198
   2.115579   2.135702   2.140435   2.147746   2.17454    2.185198
   2.198601   2.207548   2.224787   2.234701   2.240921   2.259744
   2.265286   2.274248   2.277895   2.290644   2.300432   2.324403
   2.332322   2.339537   2.348001   2.349615   2.36444    2.370653
   2.38749    2.395917   2.400703   2.414268   2.421305   2.446588
   2.449824   2.458903   2.462808   2.469316   2.481005   2.494423
   2.503142   2.505468   2.511449   2.533958   2.539383   2.543056
   2.55609    2.566154   2.568739   2.576701   2.585992   2.594934
   2.604261   2.611987   2.617252   2.626655   2.633629   2.6423
   2.653444   2.662833   2.671168   2.677704   2.685374   2.691488
   2.700139   2.707644   2.710493   2.721938   2.73345    2.739872
   2.750291   2.75813    2.76376    2.768008   2.769617   2.781051
   2.796305   2.81467    2.817268   2.83073    2.843261   2.855485
   2.864668   2.868778   2.877817   2.886306   2.892314   2.903209
   2.913306   2.923843   2.929536   2.930485   2.937007   2.948043
   2.958572   2.963212   2.972281   3.003644   3.011704   3.016295
   3.029817   3.037629   3.046042   3.048149   3.060417   3.068524
   3.077742   3.088353   3.107155   3.11689    3.145618   3.154362
   3.165617   3.171044   3.18761    3.204954   3.21565    3.232116
   3.236978   3.259666   3.273472   3.285816   3.296556   3.306426
   3.30852    3.335751   3.351081   3.366457   3.390953   3.397547
   3.414901   3.424049   3.438277   3.450082   3.466384   3.478247
   3.484846   3.505723   3.519751   3.539017   3.552427   3.564055
   3.581246   3.601601   3.620803   3.634321   3.660157   3.666669
   3.689672   3.69411    3.706917   3.711846   3.727165   3.735548
   3.745581   3.775208   3.777022   3.782534   3.79983    3.81206
   3.819201   3.832409   3.84512    3.849696   3.856977   3.867434
   3.877012   3.885551   3.890323   3.913256   3.916727   3.925564
   3.936788   3.953861   3.957157   3.966339   3.96799    3.976188
   3.981809   3.986557   3.990453   3.998838   4.0045     4.024326
   4.030774   4.035374   4.038265   4.054908   4.05779    4.06082
   4.068795   4.07741    4.087287   4.088656   4.099928   4.108743
   4.109696   4.113528   4.119568   4.12363    4.131552   4.135567
   4.154896   4.168483   4.174372   4.190728   4.197551   4.203157
   4.216688   4.22383    4.235282   4.248713   4.265208   4.268091
   4.285095   4.291739   4.315866   4.334306   4.353779   4.36387
   4.370753   4.385147   4.409816   4.431609   4.43504    4.46146
   4.483488   4.49476    4.499784   4.505423   4.534451   4.541884
   4.562005   4.571611   4.581432   4.586429   4.607691   4.621364
   4.629429   4.646891   4.653933   4.668542   4.674945   4.683846
   4.704353   4.720973   4.734859   4.740823   4.752909   4.784259
   4.794991   4.817296   4.834588   4.850294   4.895869   4.905686
   4.913277   4.930029   4.948502   4.960502   5.006218   5.040923
   5.04284    5.060519   5.085483   5.108412   5.123348   5.182922
   5.188231   5.206159   5.236821   5.258025   5.267775   5.302948
   5.324551   5.337378   5.357376   5.361563   5.407106   5.428399
   5.445836   5.481612   5.522162   5.535622   5.559538   5.582828
   5.596389   5.620567   5.647036   5.649859   5.746103   5.771696
   5.798405   5.815829   5.844964   5.894811   5.934033   5.958191
   5.994186   6.030385   6.06427    6.091742   6.111835   6.140344
   6.175492   6.203613   6.214529   6.269911   6.317983   6.343428
   6.410009   6.470724   6.523793   6.542827   6.579673   6.64463
   6.663504   6.705674   6.722915   6.803511   6.863141   6.893412
   6.931583   6.983869   7.01282    7.032883   7.053303   7.076331
   7.125435   7.184024   7.216308   7.289372   7.322077   7.386597
   7.476925   7.523466   7.530862   7.591818   7.691453   7.786707
   7.813815   7.849813   7.942106   8.01631    8.111418   8.163522
   8.223894   8.251432   8.370168   8.470486   8.525024   8.605393
   8.624647   8.738782   8.828111   8.877073   8.978483   9.043754
   9.241437   9.319654   9.367088   9.430369   9.554117   9.698875
   9.759512   9.86562    9.898626  10.017531  10.114696  10.244098
  10.270095  10.399039  10.476716  10.546026  10.647101  10.803084
  10.8943    10.949673  11.014687  11.245437  11.268062  11.526528
  11.589326  11.661549  11.795465  11.92905   12.030654  12.204205
  12.389519  12.463825  12.847443  12.889043  13.129269  13.33267
  13.501198  13.704569  13.864685  14.203367  14.420321  14.647558
  14.672151  14.975291  15.372734  15.581948  15.793492  15.957425
  16.085974  16.376831  16.397961  16.450797  16.738081  17.013028
  17.146275  17.441772  17.745981  18.051723  18.245618  18.369244
  18.85174   19.016589  19.344058  19.992106  20.537864  21.187416
  22.122632  22.647323  23.757544  28.453007]
                              [2.       2.       2.       2.       2.       2.       2.       2.
 2.       2.       2.       2.       2.       2.       2.       2.
 2.       2.       2.       2.       2.       2.       2.       2.
 2.       2.       2.       2.       2.       2.       2.       2.
 2.       2.       2.       2.       2.       2.       2.       2.
 2.       2.       2.       2.       2.       2.       2.       2.
 2.       2.       2.       2.       2.       2.       2.       2.
 2.       2.       2.       2.       2.       2.       2.       2.
 2.       2.       2.       2.       2.       2.       2.       2.
 2.       2.       2.       2.       2.       2.       2.       2.
 2.       2.       2.       2.       2.       2.       2.       2.
 2.       2.       2.       2.       2.       2.       2.       2.
 2.       2.       2.       2.       2.       2.       2.       2.
 2.       2.       2.       2.       2.       2.       2.       2.
 2.       2.       2.       2.       2.       2.       2.       2.
 2.       2.       2.       2.       2.       2.       2.       2.
 2.       2.       2.       2.       2.       2.       2.       2.
 2.       2.       2.       2.       2.       2.       2.       2.
 2.       2.       2.       2.       2.       2.       2.       2.
 2.       2.       2.       2.       2.       2.       2.       2.
 2.       2.       2.       2.       1.999999 1.999999 1.999999 1.999999
 1.999999 1.999998 1.999997 1.999997 1.999995 1.999994 1.999992 1.99999
 1.999987 1.999985 1.99998  1.99998  1.999955 1.99994  1.999925 1.999895
 1.99986  1.999844 1.99982  1.999714 1.999603 1.999423 1.999406 1.999274
 1.998801 1.99859  1.998237 1.997334 1.996489 1.996089 1.994891 1.993949
 1.992517 1.990809 1.987327 1.984338 1.983133 1.97659  1.974046 1.962162
 1.957202 1.951019 1.94339  1.931613 1.909314 1.894922 1.879113 1.852449
 1.837346 1.822386 1.776534 1.773992 1.721088 1.675816 1.662907 1.610028
 1.56168  1.487308 1.467336 1.401417 1.340493 1.258116 1.124455 1.048475
 0.919792 0.848303 0.780092 0.725789 0.665745 0.52254  0.510653 0.446784
 0.399136 0.321648 0.295592 0.259364 0.231852 0.167053 0.154941 0.135432
 0.122017 0.112889 0.096629 0.072837 0.061643 0.060797 0.045978 0.042556
 0.037626 0.027826 0.024595 0.021055 0.018749 0.018211 0.016973 0.01519
 0.012734 0.01053  0.009048 0.008392 0.007738 0.006884 0.005884 0.005684
 0.004533 0.004028 0.0038   0.003308 0.003202 0.002749 0.002316 0.002155
 0.00196  0.00175  0.001416 0.001284 0.00109  0.00103  0.000882 0.000874
 0.000794 0.000726 0.000646 0.000543 0.000467 0.000433 0.000351 0.000312
 0.000245 0.000236 0.000199 0.000189 0.000141 0.000127 0.000098 0.000077
 0.000073 0.00007  0.000067 0.000053 0.000051 0.00004  0.000031 0.000026
 0.000025 0.000022 0.000018 0.000018 0.000013 0.000011 0.00001  0.000008
 0.000008 0.000007 0.000006 0.000005 0.000005 0.000004 0.000004 0.000003
 0.000003 0.000003 0.000003 0.000002 0.000002 0.000002 0.000002 0.000002
 0.000002 0.000001 0.000001 0.000001 0.000001 0.000001 0.000001 0.000001
 0.000001 0.000001 0.000001 0.       0.       0.       0.       0.
 0.       0.       0.       0.       0.       0.       0.       0.
 0.       0.       0.       0.       0.       0.       0.       0.
 0.       0.       0.       0.       0.       0.       0.       0.
 0.       0.       0.       0.       0.       0.       0.       0.
 0.       0.       0.       0.       0.       0.       0.       0.
 0.       0.       0.       0.       0.       0.       0.       0.
 0.       0.       0.       0.       0.       0.       0.       0.
 0.       0.       0.       0.       0.       0.       0.       0.
 0.       0.       0.       0.       0.       0.       0.       0.
 0.       0.       0.       0.       0.       0.       0.       0.
 0.       0.       0.       0.       0.       0.       0.       0.
 0.       0.       0.       0.       0.       0.       0.       0.
 0.       0.       0.       0.       0.       0.       0.       0.
 0.       0.       0.       0.       0.       0.       0.       0.
 0.       0.       0.       0.       0.       0.       0.       0.
 0.       0.       0.       0.       0.       0.       0.       0.
 0.       0.       0.       0.       0.       0.       0.       0.
 0.       0.       0.       0.       0.       0.       0.       0.
 0.       0.       0.       0.       0.       0.       0.       0.
 0.       0.       0.       0.       0.       0.       0.       0.
 0.       0.       0.       0.       0.       0.       0.       0.
 0.       0.       0.       0.       0.       0.       0.       0.
 0.       0.       0.       0.       0.       0.       0.       0.
 0.       0.       0.       0.       0.       0.       0.       0.
 0.       0.       0.       0.       0.       0.       0.       0.
 0.       0.       0.       0.       0.       0.       0.       0.
 0.       0.       0.       0.       0.       0.       0.       0.
 0.       0.       0.       0.       0.       0.       0.       0.
 0.       0.       0.       0.       0.       0.       0.       0.
 0.       0.       0.       0.       0.       0.       0.       0.
 0.       0.       0.       0.       0.       0.       0.       0.
 0.       0.       0.       0.       0.       0.       0.       0.
 0.       0.       0.       0.       0.       0.       0.       0.
 0.       0.       0.       0.       0.       0.       0.       0.
 0.       0.       0.       0.       0.       0.       0.       0.
 0.       0.       0.       0.       0.       0.       0.       0.
 0.       0.       0.       0.       0.       0.       0.       0.
 0.       0.       0.       0.       0.       0.       0.       0.
 0.       0.       0.       0.       0.       0.       0.       0.
 0.       0.       0.       0.       0.       0.       0.       0.
 0.       0.       0.       0.       0.       0.       0.       0.
 0.       0.       0.       0.       0.       0.       0.       0.
 0.       0.       0.       0.       0.       0.       0.       0.
 0.       0.       0.       0.       0.       0.       0.       0.
 0.       0.       0.       0.       0.       0.       0.       0.
 0.       0.       0.       0.       0.       0.       0.       0.
 0.       0.       0.       0.       0.       0.       0.       0.
 0.       0.       0.       0.       0.       0.       0.       0.
 0.       0.       0.       0.       0.       0.       0.       0.
 0.       0.       0.       0.       0.       0.       0.       0.
 0.       0.       0.       0.       0.       0.       0.       0.
 0.       0.       0.       0.       0.       0.       0.       0.
 0.       0.       0.       0.       0.       0.       0.       0.
 0.       0.       0.       0.       0.       0.       0.       0.
 0.       0.       0.       0.       0.       0.       0.       0.
 0.       0.       0.       0.       0.       0.       0.       0.
 0.       0.       0.       0.       0.       0.       0.       0.
 0.       0.       0.       0.       0.       0.       0.       0.
 0.       0.       0.       0.       0.       0.       0.       0.
 0.       0.       0.       0.       0.       0.       0.       0.
 0.       0.       0.       0.       0.       0.       0.       0.
 0.       0.       0.       0.       0.       0.       0.       0.
 0.       0.       0.       0.       0.       0.       0.       0.
 0.       0.       0.       0.       0.       0.       0.       0.
 0.       0.       0.       0.       0.       0.       0.       0.
 0.       0.       0.       0.       0.       0.       0.       0.
 0.       0.       0.       0.       0.       0.       0.       0.
 0.       0.       0.       0.       0.       0.       0.       0.
 0.       0.       0.       0.       0.       0.       0.       0.
 0.       0.       0.       0.       0.       0.       0.       0.
 0.       0.       0.       0.       0.       0.       0.       0.
 0.       0.       0.       0.       0.       0.       0.       0.
 0.       0.       0.       0.       0.       0.       0.       0.
 0.       0.       0.       0.       0.       0.       0.       0.
 0.       0.       0.       0.       0.       0.       0.       0.      ]
    CPU time for vj and vk     54.33 sec, wall time     24.75 sec
E1 = (-3595.580939865238+1.0470978042064757e-22j)  E_coul = (-506.9718878388701+7.131515340607567e-15j)
    Total E(T) = -5043.87271892813  Free energy = -5047.8748767062  E0 = -5045.87379781716
cycle= 1 E= -5043.87271892813  delta_E= -2.13e+03  |g|=  145  |ddm|= 2.41e+05
    CPU time for cycle= 1     68.45 sec, wall time     25.24 sec
    Fermi level -2.8153  Sum mo_occ_kpts = 464.00000000000006  should equal nelec = 464
    sigma = 0.1  Optimized mu = -2.82769381131  entropy = 15.9302591911
     k-point                  mo_energy/mo_occ
   0 ( 0.000  0.000  0.000)   [-38.470212 -36.187894 -34.338988 -33.83361  -32.886477 -29.501561
 -28.398266 -27.766022 -27.44262  -26.971202 -26.770043 -26.561507
 -26.540173 -26.370043 -26.185654 -26.022439 -25.935687 -25.845407
 -25.732559 -25.678029 -25.500563 -25.483336 -25.364402 -25.303357
 -25.131083 -25.046533 -24.981747 -24.914619 -24.841161 -24.532577
 -24.375712 -24.365148 -24.271546 -24.171597 -24.016237 -23.811478
 -23.762018 -23.741425 -23.623845 -23.586805 -23.429167 -23.243758
 -23.030371 -22.979582 -22.902229 -22.776295 -22.644576 -22.489179
 -22.402669 -22.348497 -22.290228 -22.114276 -22.022995 -21.864684
 -21.707888 -21.567765 -21.485629 -21.403529 -21.376266 -21.280426
 -21.254816 -21.174093 -21.130906 -21.051035 -20.973217 -20.929711
 -20.850795 -20.712273 -20.60357  -20.470493 -20.381907 -20.282933
 -20.247052 -19.86682  -19.815497 -19.765955 -19.726126 -19.474554
 -19.423349 -19.346057 -19.253426 -19.00641  -18.987807 -18.860932
 -18.638723 -18.488215 -18.477509 -18.340351 -18.233064 -18.127762
 -17.935307 -17.712128 -17.657091 -17.339318 -17.192285 -16.464269
 -16.327298 -16.038954 -15.775589 -15.676413 -15.381524 -15.376797
 -15.017458 -14.696855 -14.600448 -14.461911 -14.341118 -14.080334
 -14.038734 -13.724547 -13.556571 -13.437498 -13.222831 -13.031124
 -12.934255 -12.523442 -12.397384 -12.145746 -11.873593 -11.724344
 -11.599512 -11.464149 -11.451792 -11.232462 -11.077963 -11.004093
 -10.95756  -10.772738 -10.685041 -10.545282 -10.492069 -10.380741
 -10.32583  -10.29252  -10.218084 -10.10014  -10.083286  -9.880005
  -9.777553  -9.613402  -9.447907  -9.227977  -9.073639  -9.017869
  -8.943047  -8.915284  -8.525177  -8.418593  -8.390622  -8.32489
  -8.253191  -8.21862   -8.083704  -8.064465  -7.974799  -7.856332
  -7.757853  -7.69388   -7.654329  -7.603176  -7.524773  -7.498709
  -7.432334  -7.378723  -7.293628  -7.269255  -7.124738  -7.103902
  -7.024022  -6.983371  -6.908402  -6.80777   -6.766595  -6.693377
  -6.606499  -6.504387  -6.436574  -6.342791  -6.267302  -6.216367
  -6.174039  -6.092806  -5.986958  -5.928249  -5.86772   -5.732962
  -5.630795  -5.556283  -5.490092  -5.434287  -5.351806  -5.256712
  -5.245693  -5.170606  -5.114882  -4.963298  -4.879441  -4.863906
  -4.735446  -4.629636  -4.604821  -4.561297  -4.45523   -4.373828
  -4.3656    -4.270473  -4.184527  -4.120173  -4.05817   -4.030228
  -3.965816  -3.900497  -3.791941  -3.779303  -3.73491   -3.660358
  -3.601879  -3.547102  -3.485674  -3.455177  -3.429761  -3.34662
  -3.290065  -3.236691  -3.154376  -3.123527  -3.052408  -3.013505
  -2.961906  -2.945443  -2.855569  -2.8153    -2.797768  -2.767931
  -2.714143  -2.689612  -2.680416  -2.623352  -2.578254  -2.553679
  -2.479434  -2.452821  -2.422072  -2.340157  -2.300314  -2.275876
  -2.244351  -2.223071  -2.192796  -2.134439  -2.110824  -2.086297
  -2.012559  -1.999818  -1.979676  -1.952183  -1.908913  -1.888311
  -1.861923  -1.840508  -1.810044  -1.790261  -1.757552  -1.74164
  -1.729004  -1.726907  -1.720249  -1.701068  -1.695509  -1.668505
  -1.642748  -1.628876  -1.586464  -1.564961  -1.545628  -1.535365
  -1.520327  -1.498423  -1.474452  -1.466243  -1.448409  -1.423971
  -1.420958  -1.379818  -1.358869  -1.347869  -1.322009  -1.302508
  -1.268663  -1.261409  -1.252611  -1.246809  -1.239853  -1.235849
  -1.221763  -1.216154  -1.202824  -1.200891  -1.193635  -1.182718
  -1.145168  -1.132771  -1.110986  -1.097719  -1.088199  -1.082338
  -1.075505  -1.067673  -1.047746  -1.039058  -1.033093  -1.026243
  -1.020073  -1.014772  -1.005936  -0.995964  -0.995166  -0.981754
  -0.968445  -0.962932  -0.957786  -0.93715   -0.933456  -0.923018
  -0.916616  -0.912516  -0.907507  -0.887128  -0.875217  -0.858187
  -0.836944  -0.808911  -0.803002  -0.782268  -0.76959   -0.756956
  -0.719115  -0.676018  -0.645916  -0.629018  -0.620986  -0.608744
  -0.597047  -0.583691  -0.574791  -0.553833  -0.532077  -0.531767
  -0.497035  -0.492424  -0.469214  -0.459869  -0.451149  -0.432163
  -0.416539  -0.389093  -0.379744  -0.362486  -0.357931  -0.348049
  -0.33186   -0.307275  -0.293765  -0.277362  -0.270356  -0.242247
  -0.230866  -0.212765  -0.20623   -0.197735  -0.179857  -0.174392
  -0.157392  -0.126892  -0.11617   -0.106771  -0.09603   -0.062526
  -0.05831   -0.055479  -0.029965  -0.022643  -0.009733   0.001117
   0.006119   0.01615    0.022794   0.039342   0.059267   0.06659
   0.072357   0.083203   0.09368    0.113901   0.121297   0.129057
   0.159872   0.169846   0.180412   0.187199   0.196373   0.215628
   0.219479   0.23132    0.242702   0.262917   0.267865   0.278248
   0.29948    0.311231   0.324917   0.330536   0.35392    0.363412
   0.369274   0.392363   0.397613   0.416622   0.423958   0.436197
   0.449652   0.46899    0.471808   0.485977   0.494639   0.514471
   0.527301   0.540943   0.548122   0.562161   0.571294   0.580526
   0.58424    0.586121   0.602239   0.610394   0.618392   0.634974
   0.646876   0.65316    0.657603   0.67625    0.690835   0.69278
   0.697402   0.720473   0.721882   0.728043   0.736815   0.739206
   0.753754   0.757946   0.765216   0.779541   0.785242   0.791541
   0.797414   0.815772   0.819956   0.825944   0.827586   0.841318
   0.847179   0.850076   0.852514   0.872925   0.882007   0.890895
   0.895912   0.915976   0.923599   0.934902   0.948187   0.950344
   0.957642   0.959729   0.975844   0.984108   0.995175   1.002126
   1.019315   1.038319   1.048439   1.051732   1.067493   1.086885
   1.093736   1.10373    1.105706   1.123647   1.132248   1.141448
   1.147167   1.159318   1.170457   1.182573   1.194106   1.200957
   1.207822   1.214003   1.225422   1.235298   1.244284   1.25633
   1.259399   1.272951   1.282929   1.289878   1.302862   1.308614
   1.325691   1.329331   1.339725   1.34423    1.35062    1.360005
   1.365216   1.38487    1.388982   1.393679   1.402411   1.415282
   1.416621   1.420481   1.430756   1.444553   1.454089   1.472961
   1.478972   1.491706   1.498057   1.501091   1.514688   1.527397
   1.531889   1.540734   1.553686   1.558848   1.560314   1.565826
   1.573487   1.579046   1.591118   1.603173   1.613115   1.620931
   1.623275   1.627684   1.645453   1.650795   1.668685   1.67602
   1.680478   1.6908     1.697063   1.707229   1.717254   1.723255
   1.725458   1.730127   1.742839   1.743593   1.760171   1.767726
   1.772786   1.776338   1.788347   1.791831   1.796119   1.806832
   1.822457   1.824363   1.832395   1.835685   1.839533   1.8491
   1.856296   1.861237   1.872124   1.876995   1.883529   1.888684
   1.898323   1.910701   1.913894   1.91847    1.930315   1.937572
   1.949109   1.957895   1.961576   1.975112   1.983168   1.984337
   1.993278   2.001985   2.008328   2.010855   2.030276   2.04225
   2.049012   2.053472   2.059961   2.070536   2.079873   2.092419
   2.095243   2.104082   2.109183   2.111973   2.118799   2.134217
   2.138372   2.142141   2.151063   2.164317   2.184722   2.186178
   2.204338   2.211046   2.219447   2.23107    2.242966   2.250549
   2.265461   2.268732   2.273395   2.284854   2.29703    2.303064
   2.306684   2.306929   2.331515   2.343944   2.350067   2.359422
   2.376268   2.382661   2.390798   2.393558   2.407582   2.412724
   2.421706   2.432914   2.442151   2.459815   2.462214   2.470893
   2.481332   2.486176   2.491652   2.497892   2.527493   2.534873
   2.536056   2.547902   2.55572    2.570542   2.580063   2.584583
   2.586863   2.594405   2.611941   2.615315   2.634958   2.647105
   2.656505   2.666884   2.670655   2.685418   2.690595   2.70464
   2.715493   2.719679   2.734627   2.744461   2.758045   2.769358
   2.781819   2.790244   2.811416   2.814941   2.822867   2.828256
   2.844784   2.851125   2.859158   2.872846   2.8828     2.88996
   2.896575   2.904144   2.908392   2.92345    2.934986   2.957076
   2.962687   2.9758     2.98336    2.991135   3.004428   3.023661
   3.029588   3.04822    3.05082    3.063243   3.078978   3.082154
   3.090741   3.103609   3.112959   3.121074   3.135093   3.137428
   3.157101   3.170531   3.183306   3.20342    3.219112   3.222313
   3.238286   3.245581   3.267241   3.274859   3.288562   3.291321
   3.313176   3.325744   3.340155   3.352774   3.355569   3.377339
   3.380719   3.397358   3.40767    3.415925   3.425195   3.449515
   3.455557   3.466495   3.480444   3.490647   3.494674   3.517372
   3.522175   3.544351   3.546543   3.569562   3.587087   3.595741
   3.609468   3.613286   3.633572   3.646136   3.6578     3.669462
   3.688368   3.707484   3.71911    3.726438   3.746031   3.763845
   3.775626   3.801262   3.816687   3.823074   3.836934   3.849654
   3.867165   3.889026   3.894508   3.911513   3.924662   3.943972
   3.959227   3.96993    3.989945   4.014694   4.034844   4.040772
   4.049602   4.065398   4.069635   4.102017   4.119655   4.145401
   4.16218    4.181261   4.188341   4.191251   4.216984   4.243967
   4.26783    4.281211   4.297221   4.311131   4.324218   4.356943
   4.364937   4.373675   4.386357   4.427506   4.450418   4.488294
   4.507283   4.541387   4.551485   4.553365   4.565853   4.609471
   4.629551   4.681217   4.691913   4.70329    4.728883   4.759255
   4.791092   4.808154   4.813569   4.850643   4.862941   4.900578
   4.920284   4.932979   4.952696   4.991344   5.040702   5.069368
   5.141315   5.176806   5.194684   5.224241   5.249117   5.280947
   5.331957   5.388336   5.451856   5.478749   5.515581   5.533228
   5.583117   5.648186   5.668198   5.713251   5.763405   5.800602
   5.841011   5.883296   5.952852   5.959682   6.031371   6.081551
   6.156498   6.18524    6.219521   6.300683   6.356936   6.390677
   6.481653   6.514155   6.553426   6.588015   6.645209   6.710938
   6.828023   6.922943   6.967798   7.039177   7.100137   7.143928
   7.235983   7.29629    7.363515   7.515875   7.557177   7.642629
   7.787743   7.917775   8.011963   8.042116   8.125612   8.156529
   8.268685   8.316532   8.388831   8.399425   8.495331   8.664215
   8.726552   8.902906   8.994059   9.102655   9.235197   9.330643
   9.412844   9.472851   9.550289   9.903874  10.072914  10.169256
  10.278917  10.350483  10.417908  10.526533  10.783037  10.874714
  11.029767  11.088524  11.31166   11.333387  11.532021  11.701953
  11.969259  12.093955  12.175202  12.508639  12.631072  12.930995
  13.024268  13.196382  13.400063  13.518777  13.682785  14.063339
  14.094191  14.374525  14.733122  14.943488  15.23472   15.489978
  15.729181  16.06064   16.454741  16.641625  16.823471  17.051997
  17.319572  18.05403   18.246177  18.411941  18.686059  19.152762
  19.552885  19.918318  20.207952  20.789339  22.246584  22.873141
  23.707785  25.003587  26.885159  28.589979]
                              [2.       2.       2.       2.       2.       2.       2.       2.
 2.       2.       2.       2.       2.       2.       2.       2.
 2.       2.       2.       2.       2.       2.       2.       2.
 2.       2.       2.       2.       2.       2.       2.       2.
 2.       2.       2.       2.       2.       2.       2.       2.
 2.       2.       2.       2.       2.       2.       2.       2.
 2.       2.       2.       2.       2.       2.       2.       2.
 2.       2.       2.       2.       2.       2.       2.       2.
 2.       2.       2.       2.       2.       2.       2.       2.
 2.       2.       2.       2.       2.       2.       2.       2.
 2.       2.       2.       2.       2.       2.       2.       2.
 2.       2.       2.       2.       2.       2.       2.       2.
 2.       2.       2.       2.       2.       2.       2.       2.
 2.       2.       2.       2.       2.       2.       2.       2.
 2.       2.       2.       2.       2.       2.       2.       2.
 2.       2.       2.       2.       2.       2.       2.       2.
 2.       2.       2.       2.       2.       2.       2.       2.
 2.       2.       2.       2.       2.       2.       2.       2.
 2.       2.       2.       2.       2.       2.       2.       2.
 2.       2.       2.       2.       2.       2.       2.       2.
 2.       2.       2.       2.       2.       2.       2.       2.
 2.       2.       2.       2.       2.       2.       2.       2.
 2.       2.       2.       2.       2.       2.       2.       2.
 2.       2.       2.       2.       2.       2.       2.       2.
 2.       2.       2.       2.       2.       2.       2.       2.
 2.       2.       2.       2.       2.       1.999999 1.999997 1.999995
 1.999991 1.999988 1.999977 1.999956 1.99987  1.999853 1.99977  1.999516
 1.999132 1.998499 1.997228 1.996241 1.995156 1.98891  1.980558 1.967072
 1.926546 1.901311 1.808808 1.730154 1.585676 1.528992 1.138482 0.938111
 0.851478 0.709772 0.486291 0.401756 0.373041 0.229439 0.152504 0.121291
 0.059623 0.046012 0.034039 0.015149 0.010196 0.007994 0.005839 0.004722
 0.003491 0.001949 0.001539 0.001205 0.000577 0.000508 0.000415 0.000315
 0.000205 0.000166 0.000128 0.000103 0.000076 0.000062 0.000045 0.000038
 0.000034 0.000033 0.000031 0.000026 0.000024 0.000018 0.000014 0.000012
 0.000008 0.000007 0.000005 0.000005 0.000004 0.000003 0.000003 0.000002
 0.000002 0.000002 0.000002 0.000001 0.000001 0.000001 0.000001 0.
 0.       0.       0.       0.       0.       0.       0.       0.
 0.       0.       0.       0.       0.       0.       0.       0.
 0.       0.       0.       0.       0.       0.       0.       0.
 0.       0.       0.       0.       0.       0.       0.       0.
 0.       0.       0.       0.       0.       0.       0.       0.
 0.       0.       0.       0.       0.       0.       0.       0.
 0.       0.       0.       0.       0.       0.       0.       0.
 0.       0.       0.       0.       0.       0.       0.       0.
 0.       0.       0.       0.       0.       0.       0.       0.
 0.       0.       0.       0.       0.       0.       0.       0.
 0.       0.       0.       0.       0.       0.       0.       0.
 0.       0.       0.       0.       0.       0.       0.       0.
 0.       0.       0.       0.       0.       0.       0.       0.
 0.       0.       0.       0.       0.       0.       0.       0.
 0.       0.       0.       0.       0.       0.       0.       0.
 0.       0.       0.       0.       0.       0.       0.       0.
 0.       0.       0.       0.       0.       0.       0.       0.
 0.       0.       0.       0.       0.       0.       0.       0.
 0.       0.       0.       0.       0.       0.       0.       0.
 0.       0.       0.       0.       0.       0.       0.       0.
 0.       0.       0.       0.       0.       0.       0.       0.
 0.       0.       0.       0.       0.       0.       0.       0.
 0.       0.       0.       0.       0.       0.       0.       0.
 0.       0.       0.       0.       0.       0.       0.       0.
 0.       0.       0.       0.       0.       0.       0.       0.
 0.       0.       0.       0.       0.       0.       0.       0.
 0.       0.       0.       0.       0.       0.       0.       0.
 0.       0.       0.       0.       0.       0.       0.       0.
 0.       0.       0.       0.       0.       0.       0.       0.
 0.       0.       0.       0.       0.       0.       0.       0.
 0.       0.       0.       0.       0.       0.       0.       0.
 0.       0.       0.       0.       0.       0.       0.       0.
 0.       0.       0.       0.       0.       0.       0.       0.
 0.       0.       0.       0.       0.       0.       0.       0.
 0.       0.       0.       0.       0.       0.       0.       0.
 0.       0.       0.       0.       0.       0.       0.       0.
 0.       0.       0.       0.       0.       0.       0.       0.
 0.       0.       0.       0.       0.       0.       0.       0.
 0.       0.       0.       0.       0.       0.       0.       0.
 0.       0.       0.       0.       0.       0.       0.       0.
 0.       0.       0.       0.       0.       0.       0.       0.
 0.       0.       0.       0.       0.       0.       0.       0.
 0.       0.       0.       0.       0.       0.       0.       0.
 0.       0.       0.       0.       0.       0.       0.       0.
 0.       0.       0.       0.       0.       0.       0.       0.
 0.       0.       0.       0.       0.       0.       0.       0.
 0.       0.       0.       0.       0.       0.       0.       0.
 0.       0.       0.       0.       0.       0.       0.       0.
 0.       0.       0.       0.       0.       0.       0.       0.
 0.       0.       0.       0.       0.       0.       0.       0.
 0.       0.       0.       0.       0.       0.       0.       0.
 0.       0.       0.       0.       0.       0.       0.       0.
 0.       0.       0.       0.       0.       0.       0.       0.
 0.       0.       0.       0.       0.       0.       0.       0.
 0.       0.       0.       0.       0.       0.       0.       0.
 0.       0.       0.       0.       0.       0.       0.       0.
 0.       0.       0.       0.       0.       0.       0.       0.
 0.       0.       0.       0.       0.       0.       0.       0.
 0.       0.       0.       0.       0.       0.       0.       0.
 0.       0.       0.       0.       0.       0.       0.       0.
 0.       0.       0.       0.       0.       0.       0.       0.
 0.       0.       0.       0.       0.       0.       0.       0.
 0.       0.       0.       0.       0.       0.       0.       0.
 0.       0.       0.       0.       0.       0.       0.       0.
 0.       0.       0.       0.       0.       0.       0.       0.
 0.       0.       0.       0.       0.       0.       0.       0.
 0.       0.       0.       0.       0.       0.       0.       0.
 0.       0.       0.       0.       0.       0.       0.       0.
 0.       0.       0.       0.       0.       0.       0.       0.
 0.       0.       0.       0.       0.       0.       0.       0.
 0.       0.       0.       0.       0.       0.       0.       0.
 0.       0.       0.       0.       0.       0.       0.       0.
 0.       0.       0.       0.       0.       0.       0.       0.
 0.       0.       0.       0.       0.       0.       0.       0.
 0.       0.       0.       0.       0.       0.       0.       0.
 0.       0.       0.       0.       0.       0.       0.       0.
 0.       0.       0.       0.       0.       0.       0.       0.
 0.       0.       0.       0.       0.       0.       0.       0.
 0.       0.       0.       0.       0.       0.       0.       0.
 0.       0.       0.       0.       0.       0.       0.       0.
 0.       0.       0.       0.       0.       0.       0.       0.
 0.       0.       0.       0.       0.       0.       0.       0.
 0.       0.       0.       0.       0.       0.       0.       0.      ]
    CPU time for vj and vk     55.46 sec, wall time     25.74 sec
E1 = (-4028.753607354508-1.4739226405632652e-22j)  E_coul = (-534.2898605376774+9.543980799809253e-15j)
    Total E(T) = -5504.36335911621  Free energy = -5505.95638503532  E0 = -5505.15987207576
cycle= 2 E= -5504.36335911621  delta_E= -460  |g|=  186  |ddm|= 4.83e+04
    CPU time for cycle= 2     71.48 sec, wall time     26.30 sec
    Fermi level -2.74766  Sum mo_occ_kpts = 464.0  should equal nelec = 464
    sigma = 0.1  Optimized mu = -2.76307410818  entropy = 36.6813747544
     k-point                  mo_energy/mo_occ
   0 ( 0.000  0.000  0.000)   [-63.925182 -57.991757 -56.270283 -53.672918 -53.056877 -48.520315
 -45.141259 -44.293548 -42.889685 -41.5362   -40.368881 -39.208915
 -37.743289 -37.184928 -36.25665  -35.089104 -33.782212 -32.837133
 -32.041917 -31.660897 -29.930735 -28.056107 -27.687492 -25.305752
 -23.811049 -23.380769 -22.9381   -21.129545 -20.923802 -20.746683
 -20.618966 -20.438284 -20.163645 -20.035254 -19.969621 -19.659164
 -19.483671 -18.865967 -18.655523 -18.557715 -18.479001 -18.346691
 -18.202481 -18.173905 -18.138822 -18.088021 -18.012659 -17.996712
 -17.863301 -17.826918 -17.758338 -17.66812  -17.625489 -17.61528
 -17.51618  -17.315127 -17.281949 -17.217979 -17.071512 -16.787661
 -16.759524 -16.644604 -16.524715 -16.199203 -16.074813 -15.92399
 -15.812101 -15.625689 -15.424708 -15.261753 -15.121263 -14.864828
 -14.826648 -14.716677 -14.675988 -14.623542 -14.589192 -14.548688
 -14.513837 -14.453124 -14.42523  -14.387971 -14.314769 -14.247531
 -14.18653  -14.127371 -14.11539  -14.002085 -13.927634 -13.904101
 -13.846352 -13.811691 -13.755114 -13.69194  -13.586519 -13.571737
 -13.497734 -13.435665 -13.360586 -13.145645 -13.058435 -13.016269
 -12.967148 -12.855413 -12.814946 -12.439711 -12.365987 -12.293176
 -12.055519 -11.968856 -11.789303 -11.696566 -11.624505 -11.391864
 -11.302589 -11.203529 -11.029108 -10.878125 -10.75439  -10.640269
 -10.529856 -10.304325 -10.139238 -10.011498  -9.95616   -9.649887
  -9.480139  -9.275701  -9.133153  -9.016651  -8.896972  -8.861537
  -8.746227  -8.597023  -8.444649  -8.318051  -8.291992  -8.261169
  -8.15573   -8.034678  -7.953323  -7.871857  -7.78695   -7.702646
  -7.641727  -7.543675  -7.390286  -7.212335  -7.140668  -7.113903
  -7.075646  -6.982981  -6.930075  -6.852855  -6.805703  -6.558296
  -6.540093  -6.433049  -6.411569  -6.263249  -6.211139  -6.144147
  -6.075041  -5.982697  -5.872975  -5.80015   -5.775203  -5.710283
  -5.63176   -5.544611  -5.465397  -5.386269  -5.332357  -5.2517
  -5.200467  -5.175544  -5.040641  -4.982125  -4.933785  -4.902921
  -4.786486  -4.677757  -4.596289  -4.547345  -4.524387  -4.459153
  -4.386879  -4.357475  -4.289601  -4.275108  -4.227717  -4.202328
  -4.137973  -4.093028  -4.05778   -3.958013  -3.904856  -3.877993
  -3.802822  -3.770079  -3.745593  -3.698938  -3.665244  -3.584806
  -3.55892   -3.502592  -3.46002   -3.422316  -3.411335  -3.388369
  -3.375601  -3.356792  -3.332862  -3.287473  -3.284037  -3.228798
  -3.140618  -3.078633  -3.057412  -3.00465   -2.98225   -2.972263
  -2.931391  -2.893271  -2.871457  -2.828006  -2.820963  -2.802026
  -2.796829  -2.780964  -2.765742  -2.74766   -2.72456   -2.704344
  -2.69936   -2.688108  -2.671376  -2.652177  -2.641867  -2.629409
  -2.61385   -2.608034  -2.59653   -2.582259  -2.567446  -2.551999
  -2.542199  -2.526513  -2.514258  -2.503862  -2.499689  -2.490064
  -2.478545  -2.468771  -2.448924  -2.435817  -2.397958  -2.381945
  -2.367288  -2.343569  -2.338555  -2.314414  -2.284769  -2.257915
  -2.233511  -2.209665  -2.167554  -2.139247  -2.13394   -2.089591
  -2.063188  -2.05314   -2.010246  -1.993676  -1.986666  -1.953954
  -1.936492  -1.914644  -1.883273  -1.872525  -1.844296  -1.830786
  -1.795849  -1.774071  -1.73271   -1.717505  -1.682454  -1.664142
  -1.646692  -1.637155  -1.61883   -1.582046  -1.560716  -1.545932
  -1.532933  -1.513917  -1.48429   -1.473229  -1.455894  -1.43255
  -1.422373  -1.405645  -1.395797  -1.372927  -1.365255  -1.35901
  -1.346398  -1.335197  -1.327043  -1.300121  -1.284685  -1.276422
  -1.266585  -1.251228  -1.243437  -1.229891  -1.208695  -1.19583
  -1.173234  -1.156017  -1.141052  -1.130232  -1.123347  -1.107519
  -1.100162  -1.091373  -1.076436  -1.068272  -1.041358  -1.035574
  -1.014523  -1.007154  -0.996994  -0.987882  -0.971129  -0.966347
  -0.960487  -0.944288  -0.922072  -0.910972  -0.907187  -0.891105
  -0.87183   -0.866747  -0.861795  -0.850301  -0.843793  -0.825236
  -0.817991  -0.809849  -0.795654  -0.786803  -0.775915  -0.768418
  -0.759988  -0.742906  -0.739468  -0.729032  -0.725034  -0.715998
  -0.711032  -0.70553   -0.695511  -0.681006  -0.678793  -0.671343
  -0.66542   -0.647677  -0.633228  -0.624381  -0.623256  -0.611962
  -0.605061  -0.589566  -0.583101  -0.581383  -0.565037  -0.552486
  -0.541849  -0.530474  -0.517801  -0.505386  -0.48497   -0.472331
  -0.458463  -0.442082  -0.417072  -0.408521  -0.402091  -0.388197
  -0.373112  -0.360388  -0.353215  -0.328895  -0.322723  -0.312646
  -0.301855  -0.290267  -0.273618  -0.264448  -0.253742  -0.244499
  -0.23643   -0.226193  -0.217203  -0.208864  -0.204315  -0.184084
  -0.170828  -0.165944  -0.162065  -0.15956   -0.140508  -0.135572
  -0.124264  -0.122113  -0.105709  -0.101258  -0.084864  -0.080475
  -0.064576  -0.05072   -0.041098  -0.035615  -0.024373  -0.013876
  -0.009536  -0.003131   0.001409   0.012027   0.014683   0.037546
   0.045128   0.052709   0.068279   0.071667   0.085481   0.090866
   0.094191   0.102747   0.112098   0.114383   0.127223   0.132432
   0.142453   0.149091   0.158188   0.170238   0.175497   0.186555
   0.190446   0.195658   0.205896   0.211566   0.223165   0.233109
   0.236631   0.242191   0.247912   0.25837    0.268095   0.279239
   0.282223   0.291119   0.292799   0.30375    0.307819   0.31335
   0.316662   0.324224   0.327909   0.331122   0.346719   0.349436
   0.359313   0.361795   0.365046   0.369482   0.376961   0.38472
   0.387295   0.396364   0.406924   0.409097   0.426263   0.431499
   0.438939   0.449014   0.457972   0.462745   0.468166   0.476311
   0.482932   0.487588   0.496883   0.507621   0.508622   0.516467
   0.523925   0.535626   0.536929   0.550242   0.559488   0.56297
   0.567187   0.581716   0.5947     0.598153   0.611192   0.615718
   0.62964    0.639015   0.647621   0.651878   0.663119   0.665356
   0.675572   0.688142   0.697198   0.706212   0.715266   0.727678
   0.736747   0.747559   0.761484   0.767946   0.778468   0.778761
   0.789172   0.790795   0.810493   0.818144   0.831679   0.838464
   0.851166   0.86441    0.870425   0.873959   0.885998   0.897257
   0.931398   0.944357   0.945111   0.952549   0.961677   0.971124
   0.980564   0.988451   1.002128   1.004291   1.016598   1.018137
   1.027236   1.041199   1.056171   1.0662     1.084709   1.090587
   1.103496   1.111293   1.132671   1.138054   1.148841   1.165412
   1.168394   1.180846   1.184498   1.21391    1.22502    1.233077
   1.239685   1.247334   1.254487   1.263445   1.270635   1.280245
   1.29372    1.296726   1.307852   1.312152   1.326931   1.335738
   1.353804   1.355137   1.366902   1.372501   1.38603    1.396087
   1.41396    1.415766   1.420426   1.430364   1.443753   1.450938
   1.457244   1.489412   1.494337   1.501105   1.519475   1.537568
   1.540279   1.556219   1.568351   1.582698   1.58634    1.58994
   1.617001   1.62511    1.627855   1.63561    1.644357   1.665282
   1.672394   1.679674   1.690852   1.695268   1.716308   1.729625
   1.734163   1.744651   1.754895   1.757941   1.780718   1.789693
   1.801262   1.816214   1.824936   1.847999   1.849771   1.860579
   1.871775   1.881044   1.889399   1.903241   1.914133   1.941633
   1.947593   1.96088    1.981001   1.985009   1.990736   1.996026
   2.001144   2.011622   2.029189   2.042872   2.063634   2.081459
   2.094497   2.105581   2.134897   2.13918    2.143549   2.16668
   2.183284   2.190203   2.211443   2.22698    2.24913    2.260418
   2.268936   2.287186   2.301888   2.318703   2.328487   2.334245
   2.358686   2.37989    2.392264   2.40571    2.413876   2.436631
   2.454707   2.480656   2.506424   2.528724   2.54845    2.590793
   2.595445   2.615002   2.634936   2.649602   2.685514   2.703311
   2.725236   2.758593   2.771998   2.783622   2.794689   2.832187
   2.858717   2.870509   2.891015   2.905608   2.921533   2.942107
   2.9649     3.005525   3.028718   3.058682   3.084677   3.112468
   3.122181   3.133856   3.157779   3.179115   3.19685    3.210489
   3.214347   3.245894   3.291961   3.305846   3.309809   3.336791
   3.360701   3.393011   3.408524   3.446654   3.459934   3.475093
   3.482084   3.521766   3.533223   3.547415   3.562674   3.588241
   3.596751   3.625346   3.63977    3.652554   3.655096   3.68124
   3.6972     3.721898   3.723774   3.749289   3.761415   3.770981
   3.811627   3.818646   3.838041   3.858281   3.871097   3.879363
   3.905731   3.924987   3.942165   3.959656   3.977928   3.988815
   4.001247   4.017177   4.034131   4.044784   4.055221   4.079227
   4.085038   4.112061   4.120605   4.126531   4.134515   4.162146
   4.190438   4.206831   4.211352   4.230902   4.259808   4.268542
   4.284232   4.301877   4.303929   4.337514   4.34841    4.384265
   4.394771   4.413191   4.445594   4.454338   4.461597   4.470971
   4.521217   4.540939   4.577643   4.581343   4.583167   4.619679
   4.630594   4.651304   4.688589   4.704874   4.73143    4.743645
   4.755203   4.7816     4.786281   4.828386   4.860587   4.891017
   4.911266   4.92444    4.954736   4.960989   4.99256    5.021166
   5.027199   5.044002   5.054684   5.077477   5.107824   5.165244
   5.184232   5.220716   5.260409   5.29996    5.340376   5.346603
   5.400424   5.46346    5.508348   5.531689   5.588769   5.610318
   5.655818   5.684333   5.755343   5.838177   5.842531   5.885886
   5.907099   5.998601   6.039777   6.060191   6.084      6.193282
   6.274602   6.375131   6.403181   6.439201   6.497193   6.549436
   6.569598   6.656895   6.694754   6.788776   6.84967    6.956623
   6.989691   6.994744   7.048188   7.135382   7.288377   7.325965
   7.415484   7.461871   7.533902   7.562951   7.6976     7.720722
   7.803769   7.90971    7.941445   8.134604   8.219091   8.363572
   8.435454   8.577082   8.64353    8.701512   8.825773   8.867577
   9.00989    9.085378   9.339094   9.390265   9.40065    9.653445
   9.866531   9.9876    10.158908  10.246061  10.493661  10.604384
  10.709986  10.81382   10.865514  11.067806  11.256486  11.383304
  11.44048   11.665981  11.756858  12.021232  12.246478  12.440586
  12.45115   12.985414  13.234539  13.562483  13.789535  14.069987
  14.11301   14.27652   14.38533   14.715164  14.941089  15.393971
  15.578628  15.908782  16.026525  16.141145  16.626979  16.829597
  17.124214  17.203125  17.70649   17.826367  18.216741  18.29488
  18.726468  19.031131  19.354104  20.060069  20.15987   20.467569
  20.867639  21.012167  21.173202  21.537423  22.306487  22.807559
  23.124325  23.560723  24.259308  24.822504  24.988122  25.035267
  25.666809  26.544961  27.097469  27.243711  27.55988   28.54035
  29.500471  30.197746  30.338059  31.13528   32.595526  34.456073
  34.837492  37.872863  40.730438  44.566393]
                              [2.       2.       2.       2.       2.       2.       2.       2.
 2.       2.       2.       2.       2.       2.       2.       2.
 2.       2.       2.       2.       2.       2.       2.       2.
 2.       2.       2.       2.       2.       2.       2.       2.
 2.       2.       2.       2.       2.       2.       2.       2.
 2.       2.       2.       2.       2.       2.       2.       2.
 2.       2.       2.       2.       2.       2.       2.       2.
 2.       2.       2.       2.       2.       2.       2.       2.
 2.       2.       2.       2.       2.       2.       2.       2.
 2.       2.       2.       2.       2.       2.       2.       2.
 2.       2.       2.       2.       2.       2.       2.       2.
 2.       2.       2.       2.       2.       2.       2.       2.
 2.       2.       2.       2.       2.       2.       2.       2.
 2.       2.       2.       2.       2.       2.       2.       2.
 2.       2.       2.       2.       2.       2.       2.       2.
 2.       2.       2.       2.       2.       2.       2.       2.
 2.       2.       2.       2.       2.       2.       2.       2.
 2.       2.       2.       2.       2.       2.       2.       2.
 2.       2.       2.       2.       2.       2.       2.       2.
 2.       2.       2.       2.       2.       2.       2.       2.
 2.       2.       2.       2.       2.       2.       2.       2.
 2.       2.       2.       2.       2.       2.       2.       2.
 2.       2.       2.       2.       2.       2.       2.       2.
 2.       2.       2.       2.       2.       1.999999 1.999999 1.999999
 1.999998 1.999997 1.999995 1.999987 1.999978 1.999971 1.999939 1.999915
 1.999892 1.999828 1.999759 1.99946  1.999301 1.998772 1.998121 1.997262
 1.996945 1.996158 1.995636 1.994735 1.993316 1.989497 1.989132 1.981193
 1.955174 1.918257 1.899899 1.836042 1.799013 1.780226 1.686646 1.572332
 1.494434 1.313714 1.281624 1.192334 1.167188 1.089213 1.013339 0.923082
 0.809777 0.71451  0.691786 0.64179  0.571147 0.496127 0.458668 0.416124
 0.367171 0.350056 0.318066 0.281722 0.24774  0.216113 0.197935 0.171666
 0.153385 0.139294 0.133982 0.122441 0.10985  0.100134 0.082855 0.073048
 0.050608 0.043282 0.037492 0.029692 0.028261 0.022267 0.016602 0.012717
 0.009977 0.007869 0.005171 0.003899 0.003698 0.002375 0.001824 0.00165
 0.001075 0.000911 0.000849 0.000612 0.000514 0.000413 0.000302 0.000271
 0.000205 0.000179 0.000126 0.000101 0.000067 0.000058 0.000041 0.000034
 0.000028 0.000026 0.000021 0.000015 0.000012 0.00001  0.000009 0.000008
 0.000006 0.000005 0.000004 0.000003 0.000003 0.000003 0.000002 0.000002
 0.000002 0.000002 0.000001 0.000001 0.000001 0.000001 0.000001 0.000001
 0.000001 0.000001 0.000001 0.       0.       0.       0.       0.
 0.       0.       0.       0.       0.       0.       0.       0.
 0.       0.       0.       0.       0.       0.       0.       0.
 0.       0.       0.       0.       0.       0.       0.       0.
 0.       0.       0.       0.       0.       0.       0.       0.
 0.       0.       0.       0.       0.       0.       0.       0.
 0.       0.       0.       0.       0.       0.       0.       0.
 0.       0.       0.       0.       0.       0.       0.       0.
 0.       0.       0.       0.       0.       0.       0.       0.
 0.       0.       0.       0.       0.       0.       0.       0.
 0.       0.       0.       0.       0.       0.       0.       0.
 0.       0.       0.       0.       0.       0.       0.       0.
 0.       0.       0.       0.       0.       0.       0.       0.
 0.       0.       0.       0.       0.       0.       0.       0.
 0.       0.       0.       0.       0.       0.       0.       0.
 0.       0.       0.       0.       0.       0.       0.       0.
 0.       0.       0.       0.       0.       0.       0.       0.
 0.       0.       0.       0.       0.       0.       0.       0.
 0.       0.       0.       0.       0.       0.       0.       0.
 0.       0.       0.       0.       0.       0.       0.       0.
 0.       0.       0.       0.       0.       0.       0.       0.
 0.       0.       0.       0.       0.       0.       0.       0.
 0.       0.       0.       0.       0.       0.       0.       0.
 0.       0.       0.       0.       0.       0.       0.       0.
 0.       0.       0.       0.       0.       0.       0.       0.
 0.       0.       0.       0.       0.       0.       0.       0.
 0.       0.       0.       0.       0.       0.       0.       0.
 0.       0.       0.       0.       0.       0.       0.       0.
 0.       0.       0.       0.       0.       0.       0.       0.
 0.       0.       0.       0.       0.       0.       0.       0.
 0.       0.       0.       0.       0.       0.       0.       0.
 0.       0.       0.       0.       0.       0.       0.       0.
 0.       0.       0.       0.       0.       0.       0.       0.
 0.       0.       0.       0.       0.       0.       0.       0.
 0.       0.       0.       0.       0.       0.       0.       0.
 0.       0.       0.       0.       0.       0.       0.       0.
 0.       0.       0.       0.       0.       0.       0.       0.
 0.       0.       0.       0.       0.       0.       0.       0.
 0.       0.       0.       0.       0.       0.       0.       0.
 0.       0.       0.       0.       0.       0.       0.       0.
 0.       0.       0.       0.       0.       0.       0.       0.
 0.       0.       0.       0.       0.       0.       0.       0.
 0.       0.       0.       0.       0.       0.       0.       0.
 0.       0.       0.       0.       0.       0.       0.       0.
 0.       0.       0.       0.       0.       0.       0.       0.
 0.       0.       0.       0.       0.       0.       0.       0.
 0.       0.       0.       0.       0.       0.       0.       0.
 0.       0.       0.       0.       0.       0.       0.       0.
 0.       0.       0.       0.       0.       0.       0.       0.
 0.       0.       0.       0.       0.       0.       0.       0.
 0.       0.       0.       0.       0.       0.       0.       0.
 0.       0.       0.       0.       0.       0.       0.       0.
 0.       0.       0.       0.       0.       0.       0.       0.
 0.       0.       0.       0.       0.       0.       0.       0.
 0.       0.       0.       0.       0.       0.       0.       0.
 0.       0.       0.       0.       0.       0.       0.       0.
 0.       0.       0.       0.       0.       0.       0.       0.
 0.       0.       0.       0.       0.       0.       0.       0.
 0.       0.       0.       0.       0.       0.       0.       0.
[...]
    sigma = 0.1  Optimized mu = -6.52737747151  entropy = 48.8091232309
     k-point                  mo_energy/mo_occ
   0 ( 0.000  0.000  0.000)   [-26.242289 -24.806352 -21.616735 -21.372956 -21.338388 -21.313495
 -21.277982 -21.275931 -21.249125 -21.235233 -19.528813 -19.521511
 -19.511394 -19.421573 -19.399907 -19.396077 -19.392929 -19.387226
 -19.259998 -19.236041 -19.200437 -19.185807 -18.308287 -18.118288
 -18.070948 -17.925777 -17.654573 -17.542349 -17.480079 -17.374648
 -17.340825 -17.090352 -16.966346 -16.892421 -16.815546 -16.354862
 -16.283926 -16.238215 -16.172974 -16.112592 -16.083048 -16.071217
 -16.056361 -16.043922 -16.039196 -16.032378 -16.024667 -16.019708
 -15.984871 -15.945295 -15.739293 -15.711237 -15.701449 -15.646367
 -15.469804 -15.325447 -15.288503 -15.2364   -14.435192 -14.346063
 -14.085757 -14.007138 -13.76636  -13.665533 -13.508188 -13.285059
 -13.208971 -12.961769 -12.830047 -12.747811 -12.694139 -12.592296
 -12.466128 -12.42937  -12.292998 -11.852197 -11.798246 -11.608982
 -11.374188 -11.3474   -11.288599 -11.206291 -10.923225 -10.688388
 -10.53998  -10.407069 -10.366897 -10.342065  -9.873657  -9.844245
  -9.632887  -9.536575  -9.348906  -9.120009  -9.003273  -8.964335
  -8.863295  -8.857047  -8.737184  -8.687854  -8.592375  -8.551848
  -8.247879  -8.239286  -8.172322  -8.087655  -8.066906  -8.051562
  -8.043505  -8.03743   -8.03139   -8.028041  -8.02227   -8.015778
  -7.990746  -7.984068  -7.975265  -7.947609  -7.856246  -7.81102
  -7.802516  -7.79711   -7.786434  -7.756205  -7.741181  -7.729656
  -7.721752  -7.709808  -7.703775  -7.689229  -7.684102  -7.67935
  -7.672797  -7.665511  -7.652033  -7.615109  -7.607595  -7.577135
  -7.569167  -7.558701  -7.552784  -7.550322  -7.538969  -7.533126
  -7.518493  -7.5112    -7.506491  -7.505089  -7.492278  -7.471112
  -7.464648  -7.453588  -7.452466  -7.429052  -7.423695  -7.422134
  -7.393064  -7.377839  -7.371214  -7.362623  -7.349917  -7.331974
  -7.31171   -7.307222  -7.298015  -7.254741  -7.234793  -7.230547
  -7.215127  -7.209122  -7.207183  -7.1989    -7.163144  -7.159046
  -7.148036  -7.142542  -7.135416  -7.130732  -7.12442   -7.107095
  -7.102485  -7.079956  -7.068618  -7.065121  -7.057094  -7.052524
  -7.045978  -7.040915  -7.032115  -7.027978  -7.0189    -7.014248
  -6.996533  -6.985797  -6.971104  -6.96598   -6.955307  -6.953487
  -6.931014  -6.909972  -6.871397  -6.862657  -6.855031  -6.835549
  -6.828889  -6.821759  -6.817524  -6.810376  -6.804582  -6.802587
  -6.796809  -6.792119  -6.779455  -6.763497  -6.761038  -6.74853
  -6.738322  -6.730949  -6.727177  -6.720334  -6.711498  -6.702853
  -6.698702  -6.679154  -6.659396  -6.632039  -6.617523  -6.611828
  -6.596841  -6.591125  -6.564145  -6.561574  -6.529138  -6.522779
  -6.499814  -6.48162   -6.474263  -6.461102  -6.42407   -6.403412
  -6.367095  -6.361603  -6.357693  -6.338917  -6.330333  -6.308823
  -6.301749  -6.296409  -6.291298  -6.260278  -6.247427  -6.244423
  -6.226162  -6.20921   -6.193098  -6.18869   -6.185022  -6.175952
  -6.169357  -6.165341  -6.157713  -6.153896  -6.151023  -6.1426
  -6.131887  -6.124038  -6.10646   -6.08957   -6.087542  -6.077433
  -6.074163  -6.056806  -6.054268  -6.015083  -5.994326  -5.974595
  -5.963914  -5.938508  -5.900346  -5.831702  -5.823178  -5.816304
  -5.810207  -5.796438  -5.776015  -5.764052  -5.744135  -5.732762
  -5.72119   -5.696549  -5.672597  -5.651892  -5.61093   -5.576561
  -5.544223  -5.512441  -5.498345  -5.48274   -5.475122  -5.459785
  -5.452613  -5.436688  -5.423986  -5.406312  -5.377319  -5.348084
  -5.33178   -5.304542  -5.285698  -5.262738  -5.229649  -5.193718
  -5.184722  -5.165184  -5.142141  -5.130768  -5.127098  -5.114376
  -5.103013  -5.096352  -5.094762  -5.079839  -5.077796  -5.059745
  -5.025808  -5.019006  -5.015735  -4.997379  -4.982813  -4.972255
  -4.954772  -4.939016  -4.918495  -4.916854  -4.887361  -4.864293
  -4.836794  -4.820657  -4.797464  -4.785808  -4.758637  -4.75262
  -4.713763  -4.707241  -4.661844  -4.636701  -4.619683  -4.594175
  -4.583252  -4.57276   -4.557387  -4.543025  -4.531035  -4.517626
  -4.492051  -4.47947   -4.468781  -4.449384  -4.439533  -4.414169
  -4.397357  -4.391612  -4.386254  -4.367643  -4.362389  -4.345539
  -4.343363  -4.324834  -4.302302  -4.285388  -4.266897  -4.25696
  -4.235974  -4.227114  -4.207872  -4.179662  -4.165112  -4.149261
  -4.134955  -4.118826  -4.09171   -4.085372  -4.060979  -4.035005
  -4.013406  -3.989884  -3.979803  -3.959998  -3.954372  -3.91354
  -3.891155  -3.887629  -3.867502  -3.845349  -3.828389  -3.800093
  -3.796334  -3.759288  -3.750342  -3.733727  -3.714567  -3.706716
  -3.682644  -3.671364  -3.66225   -3.637908  -3.601656  -3.566956
  -3.526442  -3.516691  -3.503904  -3.490855  -3.468765  -3.457187
  -3.444112  -3.421793  -3.413188  -3.396467  -3.346348  -3.335372
  -3.308379  -3.297123  -3.291754  -3.263017  -3.235478  -3.214163
  -3.205268  -3.175249  -3.164798  -3.138259  -3.110619  -3.107655
  -3.087595  -3.085324  -3.078686  -3.063684  -3.053925  -3.048133
  -3.033199  -3.003931  -2.996629  -2.95921   -2.928761  -2.920125
  -2.897587  -2.884276  -2.876777  -2.837969  -2.817814  -2.745211
  -2.714632  -2.671531  -2.65291   -2.605487  -2.587089  -2.572037
  -2.551253  -2.512629  -2.506466  -2.494175  -2.456473  -2.448987
  -2.442532  -2.419732  -2.378132  -2.370301  -2.340997  -2.328649
  -2.304516  -2.285863  -2.269289  -2.243752  -2.23012   -2.223055
  -2.191669  -2.167917  -2.156741  -2.14482   -2.135981  -2.10698
  -2.097668  -2.080321  -2.05384   -2.033184  -2.009196  -1.990932
  -1.978118  -1.966438  -1.951759  -1.927043  -1.920186  -1.908687
  -1.881559  -1.864866  -1.835311  -1.81103   -1.797168  -1.779007
  -1.766298  -1.757449  -1.738256  -1.67788   -1.663776  -1.641293
  -1.622787  -1.604894  -1.544188  -1.517589  -1.508689  -1.491584
  -1.467587  -1.452533  -1.43051   -1.405197  -1.373249  -1.359414
  -1.350719  -1.340931  -1.3136    -1.22403   -1.214285  -1.189872
  -1.172016  -1.157209  -1.0582    -1.037293  -1.021679  -0.994812
  -0.888924  -0.86163   -0.766776  -0.721538  -0.67437   -0.638552
  -0.614689  -0.596879  -0.474877  -0.213997   0.615813   0.640119
   0.733515   0.750705   0.760828   0.77942    0.928698   0.946888
   1.011452   1.045462   1.047242   1.090088   1.119046   1.13901
   1.156214   1.200566   1.261814   1.286521   1.28844    1.291747
   1.334275   1.337285   1.616705   1.622383   1.746461   1.750344
   1.752226   1.773224   1.793818   1.835126   1.93058    1.956871
   2.051866   2.05706    2.067945   2.117832   2.146609   2.237516
   2.249215   2.264204   2.295348   2.367625   2.380651   2.39175
   2.62767    2.692692   2.69409    2.696512   2.702066   2.709157
   2.714468   2.742704   2.746831   2.866723   2.928565   2.936305
   3.041382   3.092241   3.095328   3.102265   3.106102   3.256188
   3.259804   3.287523   3.309041   3.327131   3.408406   3.41874
   3.423667   3.443903   3.462188   3.483201   3.499472   3.527312
   3.537261   3.543283   3.547101   3.548311   3.550473   3.551141
   3.628451   3.634433   3.641046   3.642803   3.661673   3.676153
   3.678934   3.756984   3.766802   3.778073   3.875092   3.875316
   3.876414   3.877129   3.878421   3.880833   3.890347   3.890921
   3.897022   3.899465   3.902251   3.90397    3.922509   3.923551
   3.933041   3.934759   4.025252   4.045644   4.062343   4.076477
   4.153567   4.166803   4.207032   4.263584   4.292731   4.293391
   4.294913   4.303008   4.321273   4.329081   4.32954    4.339144
   4.345244   4.373085   4.373875   4.376373   4.423324   4.428235
   4.454829   4.482914   4.496429   4.55685    4.561998   4.581249
   4.626206   4.661598   4.883899   4.888636   4.895783   4.965829
   4.971963   4.984462   5.009874   5.090034   5.096279   5.151791
   5.160574   5.165453   5.196505   5.312932   5.328112   5.346093
   5.380728   5.394598   5.446101   5.502307   5.52711    5.654
   5.808604   5.888059   5.890454   5.982028   5.994301   5.996257
   6.010186   6.021381   6.040558   6.051915   6.06042    6.084331
   6.10452    6.120599   6.166465   6.167295   6.168024   6.17762
   6.228562   6.232654   6.236166   6.248083   6.31923    6.323056
   6.371636   6.377225   6.410369   6.417498   6.436782   6.441505
   6.444474   6.446287   6.527396   6.543349   6.660686   6.660989
   6.661478   6.661586   6.662964   6.663576   6.664985   6.665647
   6.799691   6.823417   6.827005   6.831985   6.891066   6.901804
   6.90483    6.905186   6.906181   6.906781   6.907782   6.908282
   6.909583   6.909925   6.914556   6.932237   6.946049   6.948952
   6.950628   6.975868   6.978707   7.030658   7.038399   7.041622
   7.046504   7.051088   7.056244   7.060905   7.063958   7.069577
   7.089717   7.102412   7.109364   7.110409   7.114723   7.11728
   7.120438   7.126184   7.131711   7.13815    7.144769   7.150388
   7.156993   7.162742   7.167316   7.179322   7.190056   7.204505
   7.216972   7.226667   7.248132   7.260665   7.303685   7.444936
   7.451014   7.469208   7.493001   7.531968   7.534546   7.562135
   7.591767   7.63475    7.650152   7.651146   7.693618   7.899037
   7.913186   7.970629   8.044378   8.075638   8.102163   8.136462
   8.141894   8.156236   8.22679    8.24137    8.246033   8.249887
   8.27473    8.316011   8.462044   8.533692   8.545881   8.551357
   8.55943    8.559756   8.560245   8.562619   8.564038   8.564742
   8.582232   8.584837   8.588597   8.644886   8.900751   8.945929
   8.951141   8.956949   8.969801   8.979655   8.980897   9.022114
   9.034988   9.056442   9.07399    9.076636   9.079144   9.093534
   9.095634   9.176255   9.18461    9.201646   9.203378   9.280571
   9.353569   9.402466   9.403201   9.447282   9.477896   9.506299
   9.54277    9.547544   9.559238   9.576785   9.580632   9.591043
   9.605645   9.607345   9.609665   9.611091   9.616466   9.624636
   9.631131   9.633194   9.633343   9.633842   9.63649    9.639017
   9.666403   9.684099   9.685592   9.69765    9.701562   9.713205
   9.720065   9.726059   9.727006   9.73104    9.741226   9.762419
   9.769349   9.77501    9.795611   9.802299   9.820931   9.829082
   9.832156   9.859443   9.864102   9.894786   9.922715   9.951561
   9.977275   9.997973  10.024184  10.026885  10.028298  10.029891
  10.065622  10.066963  10.096985  10.103921  10.116128  10.143999
  10.149569  10.162971  10.192136  10.204053  10.269134  10.283481
  10.28989   10.317934  10.321706  10.329616  10.340089  10.369757
  10.408136  10.49072   10.511014  10.53094   10.533597  10.670808
  10.709444  10.795585  10.823602  10.875202  10.901622  10.910158
  10.91987   10.94532   11.016573  11.027978  11.235848  11.241305
  11.297898  11.504879  11.867875  11.868882  12.048008  12.051124
  12.077473  12.080847  12.102861  12.149816]
                              [2.       2.       2.       2.       2.       2.       2.       2.
 2.       2.       2.       2.       2.       2.       2.       2.
 2.       2.       2.       2.       2.       2.       2.       2.
 2.       2.       2.       2.       2.       2.       2.       2.
 2.       2.       2.       2.       2.       2.       2.       2.
 2.       2.       2.       2.       2.       2.       2.       2.
 2.       2.       2.       2.       2.       2.       2.       2.
 2.       2.       2.       2.       2.       2.       2.       2.
 2.       2.       2.       2.       2.       2.       2.       2.
 2.       2.       2.       2.       2.       2.       2.       2.
 2.       2.       2.       2.       2.       2.       2.       2.
 2.       2.       2.       2.       2.       2.       2.       2.
 2.       2.       2.       2.       2.       2.       2.       2.
 2.       2.       2.       2.       1.999999 1.999999 1.999999 1.999999
 1.999999 1.999999 1.999999 1.999999 1.999999 1.999999 1.999997 1.999995
 1.999994 1.999994 1.999993 1.999991 1.999989 1.999988 1.999987 1.999985
 1.999984 1.999982 1.999981 1.99998  1.999979 1.999977 1.999974 1.999962
 1.999959 1.999945 1.99994  1.999934 1.99993  1.999928 1.999919 1.999914
 1.999901 1.999893 1.999888 1.999887 1.999871 1.999841 1.99983  1.99981
 1.999808 1.999757 1.999744 1.99974  1.999652 1.999595 1.999567 1.999528
 1.999465 1.999359 1.999216 1.99918  1.999101 1.998614 1.998308 1.998235
 1.997941 1.997813 1.997771 1.997578 1.996539 1.996395 1.995976 1.995749
 1.995436 1.995218 1.994907 1.993946 1.993661 1.992066 1.991118 1.990803
 1.990038 1.989575 1.988874 1.988299 1.98723  1.986694 1.985439 1.984751
 1.981822 1.979783 1.97662  1.975406 1.972674 1.972179 1.96529  1.957334
 1.937875 1.932392 1.92723  1.912265 1.906505 1.899941 1.895837 1.88855
 1.882293 1.880063 1.873381 1.867702 1.851171 1.82764  1.823728 1.80256
 1.783636 1.768992 1.761174 1.746402 1.726183 1.705102 1.694514 1.640418
 1.578426 1.480249 1.422498 1.398826 1.333995 1.308365 1.181792 1.169337
 1.008801 0.977013 0.863046 0.775122 0.740498 0.680243 0.524977 0.448991
 0.335173 0.32013  0.309756 0.263721 0.244682 0.202112 0.189617 0.180648
 0.172423 0.129413 0.114702 0.111497 0.09376  0.079722 0.068264 0.065417
 0.063135 0.057818 0.054229 0.05215  0.048412 0.046641 0.045351 0.041764
 0.037601 0.034812 0.029282 0.024788 0.024296 0.021986 0.021286 0.017925
 0.01748  0.011846 0.009637 0.007918 0.007119 0.005526 0.003776 0.001903
 0.001747 0.001631 0.001535 0.001338 0.001091 0.000968 0.000793 0.000708
 0.00063  0.000493 0.000388 0.000315 0.000209 0.000148 0.000107 0.000078
 0.000068 0.000058 0.000054 0.000046 0.000043 0.000037 0.000032 0.000027
 0.00002  0.000015 0.000013 0.00001  0.000008 0.000006 0.000005 0.000003
 0.000003 0.000002 0.000002 0.000002 0.000002 0.000001 0.000001 0.000001
 0.000001 0.000001 0.000001 0.000001 0.000001 0.000001 0.000001 0.
 0.       0.       0.       0.       0.       0.       0.       0.
 0.       0.       0.       0.       0.       0.       0.       0.
 0.       0.       0.       0.       0.       0.       0.       0.
 0.       0.       0.       0.       0.       0.       0.       0.
 0.       0.       0.       0.       0.       0.       0.       0.
 0.       0.       0.       0.       0.       0.       0.       0.
 0.       0.       0.       0.       0.       0.       0.       0.
 0.       0.       0.       0.       0.       0.       0.       0.
 0.       0.       0.       0.       0.       0.       0.       0.
 0.       0.       0.       0.       0.       0.       0.       0.
 0.       0.       0.       0.       0.       0.       0.       0.
 0.       0.       0.       0.       0.       0.       0.       0.
 0.       0.       0.       0.       0.       0.       0.       0.
 0.       0.       0.       0.       0.       0.       0.       0.
 0.       0.       0.       0.       0.       0.       0.       0.
 0.       0.       0.       0.       0.       0.       0.       0.
 0.       0.       0.       0.       0.       0.       0.       0.
 0.       0.       0.       0.       0.       0.       0.       0.
 0.       0.       0.       0.       0.       0.       0.       0.
 0.       0.       0.       0.       0.       0.       0.       0.
 0.       0.       0.       0.       0.       0.       0.       0.
 0.       0.       0.       0.       0.       0.       0.       0.
 0.       0.       0.       0.       0.       0.       0.       0.
 0.       0.       0.       0.       0.       0.       0.       0.
 0.       0.       0.       0.       0.       0.       0.       0.
 0.       0.       0.       0.       0.       0.       0.       0.
 0.       0.       0.       0.       0.       0.       0.       0.
 0.       0.       0.       0.       0.       0.       0.       0.
 0.       0.       0.       0.       0.       0.       0.       0.
 0.       0.       0.       0.       0.       0.       0.       0.
 0.       0.       0.       0.       0.       0.       0.       0.
 0.       0.       0.       0.       0.       0.       0.       0.
 0.       0.       0.       0.       0.       0.       0.       0.
 0.       0.       0.       0.       0.       0.       0.       0.
 0.       0.       0.       0.       0.       0.       0.       0.
 0.       0.       0.       0.       0.       0.       0.       0.
 0.       0.       0.       0.       0.       0.       0.       0.
 0.       0.       0.       0.       0.       0.       0.       0.
 0.       0.       0.       0.       0.       0.       0.       0.
 0.       0.       0.       0.       0.       0.       0.       0.
 0.       0.       0.       0.       0.       0.       0.       0.
 0.       0.       0.       0.       0.       0.       0.       0.
 0.       0.       0.       0.       0.       0.       0.       0.
 0.       0.       0.       0.       0.       0.       0.       0.
 0.       0.       0.       0.       0.       0.       0.       0.
 0.       0.       0.       0.       0.       0.       0.       0.
 0.       0.       0.       0.       0.       0.       0.       0.
 0.       0.       0.       0.       0.       0.       0.       0.
 0.       0.       0.       0.       0.       0.       0.       0.
 0.       0.       0.       0.       0.       0.       0.       0.
 0.       0.       0.       0.       0.       0.       0.       0.
 0.       0.       0.       0.       0.       0.       0.       0.
 0.       0.       0.       0.       0.       0.       0.       0.
 0.       0.       0.       0.       0.       0.       0.       0.
 0.       0.       0.       0.       0.       0.       0.       0.
 0.       0.       0.       0.       0.       0.       0.       0.
 0.       0.       0.       0.       0.       0.       0.       0.
 0.       0.       0.       0.       0.       0.       0.       0.
 0.       0.       0.       0.       0.       0.       0.       0.
 0.       0.       0.       0.       0.       0.       0.       0.
 0.       0.       0.       0.       0.       0.       0.       0.
 0.       0.       0.       0.       0.       0.       0.       0.
 0.       0.       0.       0.       0.       0.       0.       0.
 0.       0.       0.       0.       0.       0.       0.       0.
 0.       0.       0.       0.       0.       0.       0.       0.
 0.       0.       0.       0.       0.       0.       0.       0.
 0.       0.       0.       0.       0.       0.       0.       0.
 0.       0.       0.       0.       0.       0.       0.       0.
 0.       0.       0.       0.       0.       0.       0.       0.
 0.       0.       0.       0.       0.       0.       0.       0.
 0.       0.       0.       0.       0.       0.       0.       0.
 0.       0.       0.       0.       0.       0.       0.       0.
 0.       0.       0.       0.       0.       0.       0.       0.
 0.       0.       0.       0.       0.       0.       0.       0.
 0.       0.       0.       0.       0.       0.       0.       0.
 0.       0.       0.       0.       0.       0.       0.       0.
 0.       0.       0.       0.       0.       0.       0.       0.
 0.       0.       0.       0.       0.       0.       0.       0.      ]
    CPU time for vj and vk     53.99 sec, wall time     24.68 sec
E1 = (-4996.778503522188-8.812838488767055e-24j)  E_coul = (8.006276857507384-3.7702933082982345e-16j)
    Total E(T) = -5930.0921178887  Free energy = -5934.97303021179  E0 = -5932.53257405025
Extra cycle  E= -5930.0921178887  delta_E= 3.46e-08  |g|= 1.38e-06  |ddm|= 0.000565
    CPU time for scf_cycle   6733.62 sec, wall time    511.63 sec
    CPU time for SCF   6755.88 sec, wall time    512.38 sec
converged SCF energy = -5930.0921178887
Dumping vj and vk to hg1212-fftisdf-200.chk
 ** On entry to ZGEMM  parameter number  3 had an illegal value
 ** On entry to ZGEMM  parameter number  3 had an illegal value
 ** On entry to ZGEMM  parameter number  3 had an illegal value
 ** On entry to ZGEMM  parameter number  3 had an illegal value
 ** On entry to ZGEMM  parameter number  3 had an illegal value
 ** On entry to ZGEMM  parameter number  3 had an illegal value
 ** On entry to ZGEMM  parameter number  3 had an illegal value
 ** On entry to ZGEMM  parameter number  3 had an illegal value
