OMP_NUM_THREADS = 32
MKL_NUM_THREADS = 1
PYSCF_MAX_MEMORY = 409600
TMPDIR = /central/scratch/yangjunjie//hg1212/47403114/
PYSCF_TMPDIR = /central/scratch/yangjunjie//hg1212/47403114/

/home/junjiey/anaconda3/envs/fftisdf/bin/python
2.8.0
1.13.1
1.26.4
WARNING!
  Very diffused basis functions are found in the basis set. They may lead to severe
  linear dependence and numerical instability.  You can set  cell.exp_to_discard=0.1
  to remove the diffused Gaussians whose exponents are less than 0.1.

#INFO: **** input file is /central/home/junjiey/work/fftisdf-benchmark-new/test/hg1212-gdf-2/main.py ****
import os, sys
import time

from libdmet.utils.iotools import read_poscar
import libdmet.utils.logger as log

TMPDIR = os.getenv("TMPDIR", None)
DATA_PATH = os.getenv("DATA_PATH", None)
PYSCF_MAX_MEMORY = os.getenv("PYSCF_MAX_MEMORY", 4000)
PYSCF_MAX_MEMORY = int(PYSCF_MAX_MEMORY)

log.verbose = "DEBUG1"

start = time.time()

# this is the number of doped holes
nelec_dop = 0

cell = read_poscar(fname="./Hg1212-2x2.vasp")
cell.basis = 'cc-pvdz.dat'
cell.pseudo = {
            'Cu1': 'GTH-PBE-q19', 
            'Cu2': 'GTH-PBE-q19',
            'O1': 'gth-pbe',
            'O2': 'gth-pbe',
            'Cu3': 'GTH-PBE-q19', 
            'Cu4': 'GTH-PBE-q19',
            'O3': 'gth-pbe',
            'O4': 'gth-pbe',
            'Hg': 'gth-pbe', 
            'Ba': 'gth-pbe',
            'Ca': 'gth-pbe'}

kmesh = [1, 1, 1]
cell.spin = 0
cell.verbose = 5
cell.precision = 1e-8
# cell.ke_cutoff = ke_cutoff
cell.max_memory = PYSCF_MAX_MEMORY
cell.build()

kpts = cell.get_kpts(kmesh)

from pyscf.pbc.df import GDF
df_obj = GDF(cell, kpts=kpts)
df_obj.verbose = 10
df_obj._cderi = "/central/scratch/yangjunjie/hg1212-gdf.h5"
# df_obj._cderi_to_save = df_obj._cderi
# df_obj.build = lambda: None

from utils import scf
scf(cell, kmesh=kmesh, df_obj=df_obj, tmp=TMPDIR, chkfile="hg1212-gdf.chk", read_dm_from="/central/home/junjiey/work/fftisdf-benchmark-new/test/hg1212.chk")
#INFO: ******************** input file end ********************


System: uname_result(system='Linux', node='hpc-35-02.cm.cluster', release='5.14.0-362.24.1.el9_3.x86_64', version='#1 SMP PREEMPT_DYNAMIC Thu Feb 15 07:18:13 EST 2024', machine='x86_64')  Threads 32
Python 3.9.0 (default, Nov 15 2020, 14:28:56) 
[GCC 7.3.0]
numpy 1.26.4  scipy 1.13.1  h5py 3.12.1
Date: Tue Feb 18 00:23:19 2025
PySCF version 2.8.0
PySCF path  /home/junjiey/anaconda3/envs/fftisdf/lib/python3.9/site-packages/pyscf

[ENV] PYSCF_TMPDIR /central/scratch/yangjunjie//hg1212/47403114/
[ENV] PYSCF_MAX_MEMORY 409600
[ENV] PYSCF_EXT_PATH /home/junjiey/packages/pyscf-forge/pyscf-forge-yangjunjie-non-orth/
[CONFIG] conf_file None
[INPUT] verbose = 5
[INPUT] max_memory = 409600 
[INPUT] num. atoms = 48
[INPUT] num. electrons = 464
[INPUT] charge = 0
[INPUT] spin (= nelec alpha-beta = 2S) = 0
[INPUT] symmetry False subgroup None
[INPUT] Mole.unit = A
[INPUT] Symbol           X                Y                Z      unit          X                Y                Z       unit  Magmom
[INPUT]  1 Cu1    1.927600000000   1.927600000000   4.760811090000 AA    3.642636077712   3.642636077712   8.996629090892 Bohr   0.0
[INPUT]  2 Cu1    5.782800000000   5.782800000000   4.760811090000 AA   10.927908233135  10.927908233135   8.996629090892 Bohr   0.0
[INPUT]  3 Cu2    1.927600000000   5.782800000000   4.760811090000 AA    3.642636077712  10.927908233135   8.996629090892 Bohr   0.0
[INPUT]  4 Cu2    5.782800000000   1.927600000000   4.760811090000 AA   10.927908233135   3.642636077712   8.996629090892 Bohr   0.0
[INPUT]  5 O1     1.927600000000   3.855200000000   4.770943170000 AA    3.642636077712   7.285272155423   9.015775947164 Bohr   0.0
[INPUT]  6 O1     3.855200000000   5.782800000000   4.770943170000 AA    7.285272155423  10.927908233135   9.015775947164 Bohr   0.0
[INPUT]  7 O1     5.782800000000   3.855200000000   4.770943170000 AA   10.927908233135   7.285272155423   9.015775947164 Bohr   0.0
[INPUT]  8 O1     3.855200000000   1.927600000000   4.770943170000 AA    7.285272155423   3.642636077712   9.015775947164 Bohr   0.0
[INPUT]  9 O1     0.000000000000   1.927600000000   4.770943170000 AA    0.000000000000   3.642636077712   9.015775947164 Bohr   0.0
[INPUT] 10 O1     1.927600000000   7.710400000000   4.770943170000 AA    3.642636077712  14.570544310846   9.015775947164 Bohr   0.0
[INPUT] 11 O1     7.710400000000   5.782800000000   4.770943170000 AA   14.570544310846  10.927908233135   9.015775947164 Bohr   0.0
[INPUT] 12 O1     5.782800000000   0.000000000000   4.770943170000 AA   10.927908233135   0.000000000000   9.015775947164 Bohr   0.0
[INPUT] 13 O2     1.927600000000   1.927600000000   1.985887680000 AA    3.642636077712   3.642636077712   3.752783829348 Bohr   0.0
[INPUT] 14 O2     1.927600000000   5.782800000000   1.985887680000 AA    3.642636077712  10.927908233135   3.752783829348 Bohr   0.0
[INPUT] 15 O2     5.782800000000   1.927600000000   1.985887680000 AA   10.927908233135   3.642636077712   3.752783829348 Bohr   0.0
[INPUT] 16 O2     5.782800000000   5.782800000000   1.985887680000 AA   10.927908233135  10.927908233135   3.752783829348 Bohr   0.0
[INPUT] 17 Cu3    1.927600000000   1.927600000000   7.904288910000 AA    3.642636077712   3.642636077712  14.936941249337 Bohr   0.0
[INPUT] 18 Cu3    5.782800000000   5.782800000000   7.904288910000 AA   10.927908233135  10.927908233135  14.936941249337 Bohr   0.0
[INPUT] 19 Cu4    1.927600000000   5.782800000000   7.904288910000 AA    3.642636077712  10.927908233135  14.936941249337 Bohr   0.0
[INPUT] 20 Cu4    5.782800000000   1.927600000000   7.904288910000 AA   10.927908233135   3.642636077712  14.936941249337 Bohr   0.0
[INPUT] 21 O3     1.927600000000   3.855200000000   7.894156830000 AA    3.642636077712   7.285272155423  14.917794393065 Bohr   0.0
[INPUT] 22 O3     3.855200000000   5.782800000000   7.894156830000 AA    7.285272155423  10.927908233135  14.917794393065 Bohr   0.0
[INPUT] 23 O3     5.782800000000   3.855200000000   7.894156830000 AA   10.927908233135   7.285272155423  14.917794393065 Bohr   0.0
[INPUT] 24 O3     3.855200000000   1.927600000000   7.894156830000 AA    7.285272155423   3.642636077712  14.917794393065 Bohr   0.0
[INPUT] 25 O3     0.000000000000   1.927600000000   7.894156830000 AA    0.000000000000   3.642636077712  14.917794393065 Bohr   0.0
[INPUT] 26 O3     1.927600000000   7.710400000000   7.894156830000 AA    3.642636077712  14.570544310846  14.917794393065 Bohr   0.0
[INPUT] 27 O3     7.710400000000   5.782800000000   7.894156830000 AA   14.570544310846  10.927908233135  14.917794393065 Bohr   0.0
[INPUT] 28 O3     5.782800000000   0.000000000000   7.894156830000 AA   10.927908233135   0.000000000000  14.917794393065 Bohr   0.0
[INPUT] 29 O4     1.927600000000   1.927600000000  10.679212320000 AA    3.642636077712   3.642636077712  20.180786510881 Bohr   0.0
[INPUT] 30 O4     1.927600000000   5.782800000000  10.679212320000 AA    3.642636077712  10.927908233135  20.180786510881 Bohr   0.0
[INPUT] 31 O4     5.782800000000   1.927600000000  10.679212320000 AA   10.927908233135   3.642636077712  20.180786510881 Bohr   0.0
[INPUT] 32 O4     5.782800000000   5.782800000000  10.679212320000 AA   10.927908233135  10.927908233135  20.180786510881 Bohr   0.0
[INPUT] 33 Hg     1.927600000000   1.927600000000   0.000000000000 AA    3.642636077712   3.642636077712   0.000000000000 Bohr   0.0
[INPUT] 34 Hg     5.782800000000   5.782800000000   0.000000000000 AA   10.927908233135  10.927908233135   0.000000000000 Bohr   0.0
[INPUT] 35 Hg     1.927600000000   5.782800000000   0.000000000000 AA    3.642636077712  10.927908233135   0.000000000000 Bohr   0.0
[INPUT] 36 Hg     5.782800000000   1.927600000000   0.000000000000 AA   10.927908233135   3.642636077712   0.000000000000 Bohr   0.0
[INPUT] 37 Ba     0.000000000000   3.855200000000   2.786322000000 AA    0.000000000000   7.285272155423   5.265385474850 Bohr   0.0
[INPUT] 38 Ba     3.855200000000   7.710400000000   2.786322000000 AA    7.285272155423  14.570544310846   5.265385474850 Bohr   0.0
[INPUT] 39 Ba     3.855200000000   3.855200000000   2.786322000000 AA    7.285272155423   7.285272155423   5.265385474850 Bohr   0.0
[INPUT] 40 Ba     7.710400000000   0.000000000000   2.786322000000 AA   14.570544310846   0.000000000000   5.265385474850 Bohr   0.0
[INPUT] 41 Ba     0.000000000000   3.855200000000   9.878778000000 AA    0.000000000000   7.285272155423  18.668184865379 Bohr   0.0
[INPUT] 42 Ba     3.855200000000   7.710400000000   9.878778000000 AA    7.285272155423  14.570544310846  18.668184865379 Bohr   0.0
[INPUT] 43 Ba     3.855200000000   3.855200000000   9.878778000000 AA    7.285272155423   7.285272155423  18.668184865379 Bohr   0.0
[INPUT] 44 Ba     7.710400000000   0.000000000000   9.878778000000 AA   14.570544310846   0.000000000000  18.668184865379 Bohr   0.0
[INPUT] 45 Ca     0.000000000000   3.855200000000   6.332550000000 AA    0.000000000000   7.285272155423  11.966785170114 Bohr   0.0
[INPUT] 46 Ca     3.855200000000   7.710400000000   6.332550000000 AA    7.285272155423  14.570544310846  11.966785170114 Bohr   0.0
[INPUT] 47 Ca     3.855200000000   3.855200000000   6.332550000000 AA    7.285272155423   7.285272155423  11.966785170114 Bohr   0.0
[INPUT] 48 Ca     7.710400000000   0.000000000000   6.332550000000 AA   14.570544310846   0.000000000000  11.966785170114 Bohr   0.0
[INPUT] ---------------- BASIS SET ---------------- 
[INPUT] l, kappa, [nprim/nctr], expnt,             c_1 c_2 ...
[INPUT] O1
[INPUT] 0    0    [5    /1   ]  14.482841         -0.03658934
                                6.284704          -0.1303224
                                1.164884          0.3769821
                                0.468441          0.5431582
                                0.184961          0.208414
[INPUT] 0    0    [1    /1   ]  0.221262             1
[INPUT] 1    0    [5    /1   ]  10.213949         0.06086918
                                3.622324          0.1870524
                                1.299051          0.3714779
                                0.463791          0.4256889
                                0.157848          0.208873
[INPUT] 1    0    [1    /1   ]  0.27467              1
[INPUT] 2    0    [1    /1   ]  1.200187             1
[INPUT] Cu1
[INPUT] 0    0    [4    /2   ]  9.083669          -0.3622183 0.1093857
                                2.375895          0.7613242 -0.1645715
                                0.936687          0.5169596 0.03951353
                                0.116029          -0.08984813 -0.6615456
[INPUT] 0    0    [1    /1   ]  0.041075             1
[INPUT] 1    0    [5    /2   ]  11.566615         -0.1354626 0.02324231
                                4.918638          0.4749338 -0.075312
                                2.290556          0.709813 -0.02250031
                                1.043427          0.4923407 -0.1498897
                                0.429044          0.09926123 0.1645767
[INPUT] 1    0    [1    /1   ]  0.13904              1
[INPUT] 2    0    [3    /1   ]  8.082843          -0.3663286
                                3.149999          -0.5868172
                                1.067441          -0.6124219
[INPUT] 2    0    [1    /1   ]  0.308911             1
[INPUT] 3    0    [2    /1   ]  4.078302          -0.4962922
                                1.072255          -0.8681555
[INPUT] Cu3
[INPUT] 0    0    [4    /2   ]  9.083669          -0.3622183 0.1093857
                                2.375895          0.7613242 -0.1645715
                                0.936687          0.5169596 0.03951353
                                0.116029          -0.08984813 -0.6615456
[INPUT] 0    0    [1    /1   ]  0.041075             1
[INPUT] 1    0    [5    /2   ]  11.566615         -0.1354626 0.02324231
                                4.918638          0.4749338 -0.075312
                                2.290556          0.709813 -0.02250031
                                1.043427          0.4923407 -0.1498897
                                0.429044          0.09926123 0.1645767
[INPUT] 1    0    [1    /1   ]  0.13904              1
[INPUT] 2    0    [3    /1   ]  8.082843          -0.3663286
                                3.149999          -0.5868172
                                1.067441          -0.6124219
[INPUT] 2    0    [1    /1   ]  0.308911             1
[INPUT] 3    0    [2    /1   ]  4.078302          -0.4962922
                                1.072255          -0.8681555
[INPUT] Ba
[INPUT] 0    0    [3    /2   ]  4.860079          -0.02877241 0.02157408
                                1.399001          0.3828487 -0.2577906
                                0.40271           -0.784284 0.3891714
[INPUT] 0    0    [1    /1   ]  0.115922             1
[INPUT] 0    0    [1    /1   ]  0.033369             1
[INPUT] 1    0    [4    /1   ]  3.592628          0.04674179
                                1.573935          -0.351962
                                0.689543          0.5167405
                                0.30209           0.7478454
[INPUT] 1    0    [1    /1   ]  0.132346             1
[INPUT] 1    0    [1    /1   ]  0.042656             1
[INPUT] 2    0    [5    /1   ]  1.680976          0.05054502
                                0.883691          -0.07506956
                                0.464558          -0.05025319
                                0.244219          -0.4749195
                                0.128386          0.1435246
[INPUT] 2    0    [1    /1   ]  0.067493             1
[INPUT] Cu2
[INPUT] 0    0    [4    /2   ]  9.083669          -0.3622183 0.1093857
                                2.375895          0.7613242 -0.1645715
                                0.936687          0.5169596 0.03951353
                                0.116029          -0.08984813 -0.6615456
[INPUT] 0    0    [1    /1   ]  0.041075             1
[INPUT] 1    0    [5    /2   ]  11.566615         -0.1354626 0.02324231
                                4.918638          0.4749338 -0.075312
                                2.290556          0.709813 -0.02250031
                                1.043427          0.4923407 -0.1498897
                                0.429044          0.09926123 0.1645767
[INPUT] 1    0    [1    /1   ]  0.13904              1
[INPUT] 2    0    [3    /1   ]  8.082843          -0.3663286
                                3.149999          -0.5868172
                                1.067441          -0.6124219
[INPUT] 2    0    [1    /1   ]  0.308911             1
[INPUT] 3    0    [2    /1   ]  4.078302          -0.4962922
                                1.072255          -0.8681555
[INPUT] O3
[INPUT] 0    0    [5    /1   ]  14.482841         -0.03658934
                                6.284704          -0.1303224
                                1.164884          0.3769821
                                0.468441          0.5431582
                                0.184961          0.208414
[INPUT] 0    0    [1    /1   ]  0.221262             1
[INPUT] 1    0    [5    /1   ]  10.213949         0.06086918
                                3.622324          0.1870524
                                1.299051          0.3714779
                                0.463791          0.4256889
                                0.157848          0.208873
[INPUT] 1    0    [1    /1   ]  0.27467              1
[INPUT] 2    0    [1    /1   ]  1.200187             1
[INPUT] Hg
[INPUT] 0    0    [2    /1   ]  1.9157            0.135789
                                0.979308          -0.4520937
[INPUT] 0    0    [1    /1   ]  0.150255             1
[INPUT] 0    0    [1    /1   ]  0.054019             1
[INPUT] 1    0    [2    /1   ]  2.173806          -0.008329602
                                0.867935          0.04694467
[INPUT] 1    0    [1    /1   ]  0.34654              1
[INPUT] 1    0    [1    /1   ]  0.138363             1
[INPUT] 2    0    [3    /1   ]  3.674806          0.02455544
                                1.622342          -0.6047205
                                0.768788          -0.6547334
[INPUT] 2    0    [1    /1   ]  0.339247             1
[INPUT] 2    0    [1    /1   ]  0.136379             1
[INPUT] 3    0    [2    /1   ]  1.330141          0.5428473
                                0.507359          0.8398314
[INPUT] Cu4
[INPUT] 0    0    [4    /2   ]  9.083669          -0.3622183 0.1093857
                                2.375895          0.7613242 -0.1645715
                                0.936687          0.5169596 0.03951353
                                0.116029          -0.08984813 -0.6615456
[INPUT] 0    0    [1    /1   ]  0.041075             1
[INPUT] 1    0    [5    /2   ]  11.566615         -0.1354626 0.02324231
                                4.918638          0.4749338 -0.075312
                                2.290556          0.709813 -0.02250031
                                1.043427          0.4923407 -0.1498897
                                0.429044          0.09926123 0.1645767
[INPUT] 1    0    [1    /1   ]  0.13904              1
[INPUT] 2    0    [3    /1   ]  8.082843          -0.3663286
                                3.149999          -0.5868172
                                1.067441          -0.6124219
[INPUT] 2    0    [1    /1   ]  0.308911             1
[INPUT] 3    0    [2    /1   ]  4.078302          -0.4962922
                                1.072255          -0.8681555
[INPUT] Ca
[INPUT] 0    0    [4    /2   ]  7.213557          -0.04811677 0.06509227
                                3.953199          0.2795449 -0.3375291
                                0.887945          -0.5055939 0.5085903
                                0.381928          -0.4403097 0.318967
[INPUT] 0    0    [1    /1   ]  0.044801             1
[INPUT] 1    0    [4    /2   ]  5.522531          0.06327636 0.004842917
                                1.446307          -0.5437431 -0.003188125
                                0.605733          -0.788295 -0.06033881
                                0.239083          -0.280026 0.09655471
[INPUT] 1    0    [1    /1   ]  0.062765             1
[INPUT] 2    0    [4    /1   ]  3.010924          0.04928622
                                1.064269          0.1087188
                                0.31668           0.210131
                                0.175804          -0.03737671
[INPUT] 2    0    [1    /1   ]  0.073715             1
[INPUT] O4
[INPUT] 0    0    [5    /1   ]  14.482841         -0.03658934
                                6.284704          -0.1303224
                                1.164884          0.3769821
                                0.468441          0.5431582
                                0.184961          0.208414
[INPUT] 0    0    [1    /1   ]  0.221262             1
[INPUT] 1    0    [5    /1   ]  10.213949         0.06086918
                                3.622324          0.1870524
                                1.299051          0.3714779
                                0.463791          0.4256889
                                0.157848          0.208873
[INPUT] 1    0    [1    /1   ]  0.27467              1
[INPUT] 2    0    [1    /1   ]  1.200187             1
[INPUT] O2
[INPUT] 0    0    [5    /1   ]  14.482841         -0.03658934
                                6.284704          -0.1303224
                                1.164884          0.3769821
                                0.468441          0.5431582
                                0.184961          0.208414
[INPUT] 0    0    [1    /1   ]  0.221262             1
[INPUT] 1    0    [5    /1   ]  10.213949         0.06086918
                                3.622324          0.1870524
                                1.299051          0.3714779
                                0.463791          0.4256889
                                0.157848          0.208873
[INPUT] 1    0    [1    /1   ]  0.27467              1
[INPUT] 2    0    [1    /1   ]  1.200187             1

Ewald components = 514.671494873007, -1896.43816646742, 440.44678037039
nuclear repulsion = -941.319891224022
number of shells = 304
number of NR pGTOs = 1976
number of NR cGTOs = 952
basis = cc-pvdz.dat
ecp = {}
CPU time:         7.65
lattice vectors  a1 [14.570544311, 0.000000000, 0.000000000]
                 a2 [0.000000000, 14.570544311, 0.000000000]
                 a3 [0.000000000, 0.000000000, 23.933570340]
dimension = 3
low_dim_ft_type = None
Cell volume = 5081.12
rcut = 37.04881233010331 (nimgs = [3 3 2])
lattice sum = 447 cells
precision = 1e-08
pseudo = {'Cu1': 'GTH-PBE-q19', 'Cu2': 'GTH-PBE-q19', 'O1': 'gth-pbe', 'O2': 'gth-pbe', 'Cu3': 'GTH-PBE-q19', 'Cu4': 'GTH-PBE-q19', 'O3': 'gth-pbe', 'O4': 'gth-pbe', 'Hg': 'gth-pbe', 'Ba': 'gth-pbe', 'Ca': 'gth-pbe'}
ke_cutoff = 1200.9393601132426
    = [229 229 375] mesh (19665375 PWs)
using DM from file /central/home/junjiey/work/fftisdf-benchmark-new/test/hg1212.chk
using pre-built cderi


******** <class 'pyscf.pbc.scf.addons.SmearingKRHF'> ********
method = SmearingKRHF
initial guess = minao
damping factor = 0
level_shift factor = 0
DIIS = <class 'pyscf.scf.diis.CDIIS'>
diis_start_cycle = 1
diis_space = 8
diis_damp = 0
SCF conv_tol = 1e-06
SCF conv_tol_grad = None
SCF max_cycles = 50
direct_scf = True
direct_scf_tol = 1e-13
chkfile to save SCF result = /central/scratch/yangjunjie/hg1212/47403114/tmple_q2ay3
max_memory 409600 MB (current use 208 MB)


******** PBC SCF flags ********
N kpts = 1
kpts = [[0. 0. 0.]]
Exchange divergence treatment (exxdiv) = None
Smearing method = fermi
DF object = <pyscf.pbc.df.df.GDF object at 0x7f03861b7640>
Set gradient conv threshold to 0.001
kmesh for bvk-cell = [1 1 1]


******** <class 'pyscf.pbc.df.rsdf_builder._RSNucBuilder'> ********
mesh = [25 25 39] (24375 PWs)
ke_cutoff = 12.440045319206014
omega = 0.4347490403914922
exclude_d_aux = False
exclude_dd_block = True
j2c_eig_always = False
has_long_range = True
Set _RSNucBuilder.direct_scf_tol to 4.16763e-13
rs_cell.nbas 344 nao 1040
No. smooth_bas in rs_cell 64
sup-mol nbas = 4201 cGTO = 11639 pGTO = 21100
sup-mol-ft nbas = 14149 cGTO = 43050 pGTO = 82142
    CPU time for int3c kernel initialization      1.36 sec, wall time      0.06 sec
Set ft_ao cutoff to 3.64182e-10
kmesh for bvk-cell = [1 1 1]
sup-mol nbas = 3663 cGTO = 9431 pGTO = 18118
    CPU time for int3c kernel initialization      1.26 sec, wall time      0.04 sec
    CPU time for int3c kernel initialization      0.40 sec, wall time      0.01 sec
    CPU time for get_pp   2160.47 sec, wall time     97.64 sec
get_k_kpts: build K from symm mo coeff
get_k_kpts: rank(dm) = 384 / 952
max_memory 408736 MB, blksize 240
    CPU time for get_k_kpts: make_kpt ki>=kj (0,*)   3928.71 sec, wall time    148.90 sec
    CPU time for buf1      73.46 sec, wall time      16.07 sec
    CPU time for ct11    1284.37 sec, wall time      42.07 sec
    CPU time for ct12    2564.55 sec, wall time      85.73 sec
    CPU time for buf2       0.00 sec, wall time       0.00 sec
    CPU time for ct21       0.00 sec, wall time       0.00 sec
    CPU time for ct22       0.00 sec, wall time       0.00 sec
    CPU time for load       6.29 sec, wall time       4.99 sec
    CPU time for get_k_kpts   3932.58 sec, wall time    149.05 sec
max_memory 408732 MB, blksize 240
    CPU time for get_j pass 1     84.99 sec, wall time     25.50 sec
max_memory 408732 MB, blksize 240
    CPU time for get_j pass 2    149.30 sec, wall time     11.91 sec
    CPU time for get_j    235.24 sec, wall time     37.45 sec
    CPU time for vj and vk   4167.84 sec, wall time    186.50 sec
E1 = (-4777.008127087327+2.1548309127990033e-23j)  E_coul = (6516.131479761524-3.478283368623936e-23j)
init E= 797.803461450175
    CPU time for initialize scf   6362.32 sec, wall time    285.32 sec
    Fermi level -7.99438  Sum mo_occ_kpts = 463.99999999999994  should equal nelec = 464
    sigma = 0.1  Optimized mu = -8.01919151335  entropy = 24.9675515046
     k-point                  mo_energy/mo_occ
   0 ( 0.000  0.000  0.000)   [-16.136307 -16.134328 -16.131299 -16.12946  -16.129083 -16.127366
 -16.122381 -16.121783 -16.118728 -16.117751 -16.11641  -16.115805
 -16.111989 -16.111948 -16.110123 -16.109965 -16.098795 -16.098068
 -16.097895 -16.097633 -14.674643 -14.652381 -14.6377   -14.635593
 -14.166621 -14.165272 -14.163395 -14.162396 -14.1539   -14.152997
 -14.152101 -14.14998  -14.048314 -14.045242 -14.030291 -14.029435
 -13.718817 -13.714492 -13.694679 -13.694146 -13.146505 -13.121816
 -13.112614 -13.111507 -13.077946 -13.077263 -13.063832 -13.058199
 -13.052702 -13.052434 -13.04711  -13.041339 -13.03954  -13.039482
 -13.030113 -13.024893 -12.998096 -12.975963 -12.966209 -12.963059
 -12.962235 -12.940593 -12.939488 -12.928339 -12.927688 -12.923847
 -12.922038 -12.912946 -12.906628 -12.88593  -12.877085 -12.873286
 -12.862317 -12.857812 -12.852461 -12.846718 -12.838521 -12.832824
 -12.829968 -12.796098 -12.783825 -12.778928 -12.771362 -12.767594
 -12.766351 -12.762824 -12.756954 -12.755982 -12.56709  -12.546033
 -12.537212 -12.526832 -12.519672 -12.516477 -12.505781 -12.500578
 -12.45852  -12.457873 -12.44538  -12.440615 -12.440449 -12.358264
 -12.355009 -12.276919 -12.218269 -12.152637 -12.151691 -12.145114
 -12.145013 -12.120443 -12.11697  -12.115636 -12.115496 -12.069454
 -12.041083 -11.943004 -11.924859 -11.908129 -11.903103 -11.865886
 -11.787004 -11.774017 -11.747614 -11.714078 -11.693839 -11.65532
 -11.605873 -11.595125 -11.534663 -11.532478 -11.517837 -11.510465
 -11.492098 -11.464069 -11.455231 -11.39592  -11.367738 -11.264519
 -11.261768 -11.257198 -11.251282 -11.208732 -11.183459 -11.181084
 -11.143318 -11.133262 -11.09673  -11.04342  -11.00958  -10.994164
 -10.976297 -10.963843 -10.955566 -10.869754 -10.864954 -10.848787
 -10.667078 -10.638069 -10.629257 -10.583279 -10.509134 -10.424218
 -10.416582 -10.407061 -10.405253 -10.397835 -10.369365 -10.36558
 -10.355186 -10.35189  -10.343978 -10.339792 -10.262358 -10.260301
 -10.248869 -10.24176  -10.238791 -10.134926 -10.0936   -10.041555
  -9.726982  -9.718196  -9.635732  -9.633173  -9.498684  -9.40704
  -9.37132   -9.345276  -9.32591   -9.290978  -9.242084  -9.23368
  -9.220787  -9.161274  -9.155616  -9.091057  -9.085381  -9.071094
  -9.06064   -9.059578  -8.982542  -8.931498  -8.919044  -8.903367
  -8.828659  -8.712503  -8.694195  -8.684759  -8.659783  -8.654527
  -8.624985  -8.621781  -8.620678  -8.617115  -8.601912  -8.587872
  -8.567741  -8.559075  -8.542889  -8.479589  -8.466461  -8.45865
  -8.420412  -8.308719  -8.276096  -8.125816  -8.089291  -8.065646
  -8.05208   -8.050923  -8.041983  -7.994379  -7.993379  -7.980599
  -7.932726  -7.926205  -7.919877  -7.890285  -7.88395   -7.878809
  -7.860167  -7.859978  -7.842854  -7.838013  -7.71519   -7.596068
  -7.595362  -7.543182  -7.511055  -7.407385  -7.403173  -7.378152
  -7.375248  -7.142237  -7.041077  -7.016887  -7.00758   -6.989991
  -6.889695  -6.831983  -6.77768   -6.775696  -6.759333  -6.726941
  -6.72129   -6.695439  -6.691136  -6.690202  -6.65319   -6.652123
  -6.53463   -6.449391  -6.353092  -6.309147  -6.232311  -6.210502
  -6.194506  -6.189649  -6.126251  -6.054561  -6.025732  -5.959412
  -5.937712  -5.926819  -5.868542  -5.842543  -5.785418  -5.767171
  -5.75598   -5.753721  -5.730206  -5.726041  -5.70777   -5.707079
  -5.704752  -5.696354  -5.688485  -5.688041  -5.615317  -5.501673
  -5.442477  -5.403713  -5.402609  -5.384347  -5.283468  -5.264152
  -5.223665  -5.176733  -5.17138   -5.144936  -5.085939  -4.969175
  -4.960228  -4.911041  -4.669327  -4.621059  -4.524899  -4.523256
  -4.485941  -4.440548  -4.359319  -4.232544  -4.224036  -4.21461
  -4.149959  -4.137726  -3.45601   -3.320699  -3.228673  -3.194086
  -3.174384  -3.13502   -2.96806   -2.925927  -2.844658  -2.835768
  -2.819049  -2.816359  -2.80275   -2.784513  -2.613319  -2.572546
  -2.505713  -2.452206  -2.445716  -2.363677  -2.355466  -2.256299
  -2.233711  -2.144959  -2.119596  -2.101711  -2.06582   -2.057007
  -1.954154  -1.831833  -1.819726  -1.813453  -1.727391  -1.724892
  -1.665012  -1.643983  -1.635935  -1.55946   -1.54674   -1.334137
  -1.301891  -1.268698  -1.24606   -1.192177  -0.950318  -0.904674
  -0.638138  -0.591779  -0.553786  -0.485052  -0.402126   0.028486
   0.171973   0.263019   0.315572   0.462395   0.510411   0.553039
   0.696167   0.733894   0.835168   0.8897     1.046303   1.061504
   1.067688   1.198821   1.285605   1.394402   1.549228   1.631282
   1.670925   1.801581   1.886605   2.083225   2.32421    2.557438
   2.565186   2.612702   2.940643   3.140056   3.232588   3.334243
   3.489645   3.496042   3.684248   3.729669   3.76896    3.771525
   3.96573    4.1649     4.198948   4.268917   4.300503   4.719359
   4.974903   5.036505   5.236202   5.366864   5.386779   5.548243
   5.715909   5.807256   5.993594   6.017686   6.221399   6.231591
   6.248895   6.287193   6.356064   6.482951   6.572337   6.601221
   6.622513   6.643665   6.773315   6.851362   6.95433    7.170332
   7.218362   7.230214   7.267762   7.290538   7.415408   7.422181
   7.51441    7.74694    7.892604   8.044008   8.105754   8.277265
   8.450369   8.53219    8.577352   8.590129   8.635094   8.691614
   8.759461   8.783212   8.793105   8.842402   8.858655   8.90645
   8.991336   9.030594   9.062301   9.07549    9.099688   9.118773
   9.143981   9.166513   9.217237   9.271181   9.287481   9.375486
   9.388403   9.457651   9.468693   9.53071    9.643647   9.734545
   9.744394   9.756013   9.769478   9.780054   9.982746   9.998243
  10.006631  10.012281  10.030313  10.06634   10.133455  10.138914
  10.207007  10.322565  10.387255  10.429231  10.489979  10.559699
  10.582691  10.604781  10.628678  10.660507  10.660969  10.739062
  10.779793  10.79779   10.825889  10.870962  10.924277  10.950525
  10.985098  10.991757  11.030266  11.058304  11.071689  11.140106
  11.18289   11.186737  11.203898  11.277449  11.359228  11.361148
  11.366248  11.384986  11.398672  11.401166  11.44794   11.526355
  11.542152  11.561034  11.572647  11.578256  11.584538  11.596495
  11.647353  11.654459  11.683838  11.701698  11.780684  11.806129
  11.851616  11.883337  11.902186  11.919181  11.940826  11.979547
  12.033142  12.052453  12.070665  12.162981  12.211708  12.223351
  12.234127  12.23917   12.278     12.336495  12.355902  12.389847
  12.404964  12.421711  12.481802  12.490769  12.50754   12.520032
  12.553881  12.591849  12.596304  12.622049  12.642159  12.699351
  12.733685  12.769324  12.777902  12.780608  12.824622  12.861766
  12.906457  12.982679  13.021807  13.054761  13.101214  13.147595
  13.178525  13.23127   13.254569  13.259972  13.312913  13.328701
  13.3589    13.37884   13.387129  13.418923  13.438269  13.44679
  13.467905  13.479688  13.493025  13.513091  13.528813  13.535574
  13.559805  13.597842  13.605571  13.611225  13.616347  13.64103
  13.645162  13.679038  13.710324  13.725464  13.79404   13.821223
  13.852492  13.8583    13.881067  13.938815  13.945895  13.971206
  13.982083  13.984285  14.008945  14.012778  14.04292   14.050287
  14.074521  14.111524  14.133138  14.161794  14.168539  14.186002
  14.207403  14.218643  14.248125  14.283183  14.316012  14.325289
  14.3493    14.363694  14.404032  14.452357  14.473407  14.481524
  14.516036  14.54015   14.587629  14.611331  14.626356  14.674824
  14.694931  14.708075  14.738926  14.759968  14.774689  14.79215
  14.799183  14.806411  14.828415  14.848154  14.877457  14.905767
  14.930679  14.94702   14.954354  14.967221  14.9985    15.003755
  15.02447   15.033485  15.051193  15.058409  15.082435  15.09022
  15.123308  15.1615    15.173439  15.178984  15.182718  15.226909
  15.22855   15.239343  15.297024  15.315392  15.328282  15.359005
  15.373125  15.382724  15.412011  15.42557   15.437125  15.457445
  15.475305  15.492974  15.542629  15.560908  15.62244   15.644477
  15.727515  15.75781   15.764285  15.772282  15.849917  15.856093
  15.900097  15.905757  15.923805  15.950096  15.967562  16.003406
  16.044238  16.047794  16.092316  16.096438  16.110722  16.16393
  16.171908  16.195383  16.237597  16.240904  16.275446  16.291065
  16.312809  16.349786  16.421387  16.446227  16.466398  16.526744
  16.53065   16.63944   16.663688  16.68629   16.760324  16.764248
  16.825995  16.872606  16.934822  16.957607  16.978631  17.009462
  17.016501  17.030368  17.053381  17.059105  17.087086  17.101177
  17.154475  17.24459   17.249017  17.301319  17.306519  17.332006
  17.338567  17.352812  17.359976  17.414719  17.431136  17.439945
  17.468346  17.473819  17.496446  17.528868  17.546595  17.568191
  17.605068  17.618218  17.631766  17.677582  17.740776  17.743175
  17.768762  17.7891    17.81719   17.856866  17.874894  17.925424
  17.942878  17.964056  18.027815  18.044304  18.049517  18.068536
  18.0967    18.102595  18.169935  18.235364  18.262316  18.286217
  18.330486  18.334447  18.353023  18.361456  18.410531  18.441199
  18.478523  18.505139  18.534521  18.558747  18.574479  18.582187
  18.602749  18.654491  18.669428  18.707526  18.731108  18.74403
  18.76712   18.779049  18.79097   18.796642  18.877375  18.882998
  18.898626  18.903339  18.917557  18.939523  18.946982  18.957833
  18.975245  18.987283  19.029551  19.045666  19.055256  19.071619
  19.078802  19.101357  19.129494  19.151492  19.167267  19.186194
  19.210734  19.226668  19.260075  19.299465  19.305057  19.316555
  19.347704  19.358756  19.381038  19.421942  19.431308  19.450341
  19.473295  19.476723  19.513941  19.563382  19.587057  19.595378
  19.627064  19.643531  19.659697  19.685145  19.698677  19.715026
  19.738746  19.816719  19.844237  19.851544  19.911157  19.915843
  19.927617  19.952576  20.001511  20.020466  20.046036  20.096679
  20.137002  20.213276  20.292488  20.294692  20.346598  20.383566
  20.825881  20.873909  21.098445  21.127324  21.561713  21.591331
  21.604063  21.665293  21.805085  21.818265  21.823212  21.88029
  22.478448  22.520066  22.736253  22.74622   23.92659   24.001834
  24.052729  24.135949  24.203104  24.23821   24.241125  24.290353
  24.306074  24.398906  24.407303  24.451699  24.491555  24.532821
  24.546576  24.573418  24.623069  24.65729   24.683598  24.764117
  24.804615  24.856345  26.652037  26.655707  26.694172  26.752559
  26.892875  26.913001  26.921506  26.982216  27.007705  27.029568
  27.065393  27.077831  27.169799  27.22274   27.259514  27.286487
  27.296408  27.306776  27.323729  27.341332  27.386603  27.45182
  27.459307  27.492717  27.573794  27.580563  27.666676  27.723329
  28.260301  28.511411  28.806413  29.729007  30.138557  30.296014
  39.168444  39.324748  39.413668  40.749201]
                              [2.       2.       2.       2.       2.       2.       2.       2.
 2.       2.       2.       2.       2.       2.       2.       2.
 2.       2.       2.       2.       2.       2.       2.       2.
 2.       2.       2.       2.       2.       2.       2.       2.
 2.       2.       2.       2.       2.       2.       2.       2.
 2.       2.       2.       2.       2.       2.       2.       2.
 2.       2.       2.       2.       2.       2.       2.       2.
 2.       2.       2.       2.       2.       2.       2.       2.
 2.       2.       2.       2.       2.       2.       2.       2.
 2.       2.       2.       2.       2.       2.       2.       2.
 2.       2.       2.       2.       2.       2.       2.       2.
 2.       2.       2.       2.       2.       2.       2.       2.
 2.       2.       2.       2.       2.       2.       2.       2.
 2.       2.       2.       2.       2.       2.       2.       2.
 2.       2.       2.       2.       2.       2.       2.       2.
 2.       2.       2.       2.       2.       2.       2.       2.
 2.       2.       2.       2.       2.       2.       2.       2.
 2.       2.       2.       2.       2.       2.       2.       2.
 2.       2.       2.       2.       2.       2.       2.       2.
 2.       2.       2.       2.       2.       2.       2.       2.
 2.       2.       2.       2.       2.       2.       2.       2.
 2.       2.       2.       2.       2.       2.       2.       2.
 2.       2.       2.       2.       2.       2.       2.       2.
 1.999999 1.999998 1.999997 1.999997 1.999996 1.999994 1.99999  1.999989
 1.999988 1.999978 1.999977 1.999956 1.999953 1.999946 1.99994  1.999939
 1.999869 1.999782 1.999753 1.999711 1.99939  1.998052 1.997661 1.99743
 1.996702 1.996524 1.995332 1.995181 1.995128 1.994951 1.994125 1.993242
 1.991741 1.990997 1.989424 1.980175 1.977425 1.975613 1.964456 1.895224
 1.857685 1.487764 1.336818 1.228182 1.162976 1.157341 1.113466 0.876571
 0.871648 0.809396 0.592733 0.565905 0.540582 0.432022 0.410951 0.394419
 0.338699 0.338166 0.292737 0.280845 0.091301 0.028652 0.028454 0.016984
 0.012346 0.004396 0.004215 0.003283 0.00319  0.000311 0.000113 0.000089
 0.000081 0.000068 0.000025 0.000014 0.000008 0.000008 0.000007 0.000005
 0.000005 0.000004 0.000003 0.000003 0.000002 0.000002 0.000001 0.
 0.       0.       0.       0.       0.       0.       0.       0.
 0.       0.       0.       0.       0.       0.       0.       0.
 0.       0.       0.       0.       0.       0.       0.       0.
 0.       0.       0.       0.       0.       0.       0.       0.
 0.       0.       0.       0.       0.       0.       0.       0.
 0.       0.       0.       0.       0.       0.       0.       0.
 0.       0.       0.       0.       0.       0.       0.       0.
 0.       0.       0.       0.       0.       0.       0.       0.
 0.       0.       0.       0.       0.       0.       0.       0.
 0.       0.       0.       0.       0.       0.       0.       0.
 0.       0.       0.       0.       0.       0.       0.       0.
 0.       0.       0.       0.       0.       0.       0.       0.
 0.       0.       0.       0.       0.       0.       0.       0.
 0.       0.       0.       0.       0.       0.       0.       0.
 0.       0.       0.       0.       0.       0.       0.       0.
 0.       0.       0.       0.       0.       0.       0.       0.
 0.       0.       0.       0.       0.       0.       0.       0.
 0.       0.       0.       0.       0.       0.       0.       0.
 0.       0.       0.       0.       0.       0.       0.       0.
 0.       0.       0.       0.       0.       0.       0.       0.
 0.       0.       0.       0.       0.       0.       0.       0.
 0.       0.       0.       0.       0.       0.       0.       0.
 0.       0.       0.       0.       0.       0.       0.       0.
 0.       0.       0.       0.       0.       0.       0.       0.
 0.       0.       0.       0.       0.       0.       0.       0.
 0.       0.       0.       0.       0.       0.       0.       0.
 0.       0.       0.       0.       0.       0.       0.       0.
 0.       0.       0.       0.       0.       0.       0.       0.
 0.       0.       0.       0.       0.       0.       0.       0.
 0.       0.       0.       0.       0.       0.       0.       0.
 0.       0.       0.       0.       0.       0.       0.       0.
 0.       0.       0.       0.       0.       0.       0.       0.
 0.       0.       0.       0.       0.       0.       0.       0.
 0.       0.       0.       0.       0.       0.       0.       0.
 0.       0.       0.       0.       0.       0.       0.       0.
 0.       0.       0.       0.       0.       0.       0.       0.
 0.       0.       0.       0.       0.       0.       0.       0.
 0.       0.       0.       0.       0.       0.       0.       0.
 0.       0.       0.       0.       0.       0.       0.       0.
 0.       0.       0.       0.       0.       0.       0.       0.
 0.       0.       0.       0.       0.       0.       0.       0.
 0.       0.       0.       0.       0.       0.       0.       0.
 0.       0.       0.       0.       0.       0.       0.       0.
 0.       0.       0.       0.       0.       0.       0.       0.
 0.       0.       0.       0.       0.       0.       0.       0.
 0.       0.       0.       0.       0.       0.       0.       0.
 0.       0.       0.       0.       0.       0.       0.       0.
 0.       0.       0.       0.       0.       0.       0.       0.
 0.       0.       0.       0.       0.       0.       0.       0.
 0.       0.       0.       0.       0.       0.       0.       0.
 0.       0.       0.       0.       0.       0.       0.       0.
 0.       0.       0.       0.       0.       0.       0.       0.
 0.       0.       0.       0.       0.       0.       0.       0.
 0.       0.       0.       0.       0.       0.       0.       0.
 0.       0.       0.       0.       0.       0.       0.       0.
 0.       0.       0.       0.       0.       0.       0.       0.
 0.       0.       0.       0.       0.       0.       0.       0.
 0.       0.       0.       0.       0.       0.       0.       0.
 0.       0.       0.       0.       0.       0.       0.       0.
 0.       0.       0.       0.       0.       0.       0.       0.
 0.       0.       0.       0.       0.       0.       0.       0.
 0.       0.       0.       0.       0.       0.       0.       0.
 0.       0.       0.       0.       0.       0.       0.       0.
 0.       0.       0.       0.       0.       0.       0.       0.
 0.       0.       0.       0.       0.       0.       0.       0.
 0.       0.       0.       0.       0.       0.       0.       0.
 0.       0.       0.       0.       0.       0.       0.       0.
 0.       0.       0.       0.       0.       0.       0.       0.
 0.       0.       0.       0.       0.       0.       0.       0.
 0.       0.       0.       0.       0.       0.       0.       0.
 0.       0.       0.       0.       0.       0.       0.       0.
 0.       0.       0.       0.       0.       0.       0.       0.
 0.       0.       0.       0.       0.       0.       0.       0.
 0.       0.       0.       0.       0.       0.       0.       0.
 0.       0.       0.       0.       0.       0.       0.       0.
 0.       0.       0.       0.       0.       0.       0.       0.
 0.       0.       0.       0.       0.       0.       0.       0.
 0.       0.       0.       0.       0.       0.       0.       0.
 0.       0.       0.       0.       0.       0.       0.       0.
 0.       0.       0.       0.       0.       0.       0.       0.
 0.       0.       0.       0.       0.       0.       0.       0.
 0.       0.       0.       0.       0.       0.       0.       0.
 0.       0.       0.       0.       0.       0.       0.       0.
 0.       0.       0.       0.       0.       0.       0.       0.
 0.       0.       0.       0.       0.       0.       0.       0.      ]
get_k_kpts: build K from symm mo coeff
get_k_kpts: rank(dm) = 279 / 952
max_memory 408632 MB, blksize 240
    CPU time for get_k_kpts: make_kpt ki>=kj (0,*)   2868.13 sec, wall time    111.50 sec
    CPU time for buf1      74.18 sec, wall time      16.64 sec
    CPU time for ct11     932.42 sec, wall time      30.62 sec
    CPU time for ct12    1855.44 sec, wall time      63.21 sec
    CPU time for buf2       0.00 sec, wall time       0.00 sec
    CPU time for ct21       0.00 sec, wall time       0.00 sec
    CPU time for ct22       0.00 sec, wall time       0.00 sec
    CPU time for load       6.04 sec, wall time       1.01 sec
    CPU time for get_k_kpts   2868.28 sec, wall time    111.51 sec
max_memory 408625 MB, blksize 240
    CPU time for get_j pass 1     84.61 sec, wall time     25.43 sec
max_memory 408625 MB, blksize 240
    CPU time for get_j pass 2    148.55 sec, wall time     11.86 sec
    CPU time for get_j    234.80 sec, wall time     37.34 sec
    CPU time for vj and vk   3103.10 sec, wall time    148.86 sec
E1 = (3724.4381395118457+2.4612938192433394e-30j)  E_coul = (6216.395558444299-2.2940427891055564e-27j)
    Total E(T) = 8999.51380673212  Free energy = 8997.01705158167  E0 = 8998.26542915689
cycle= 1 E= 8999.51380673212  delta_E= 8.2e+03  |g|=  112  |ddm|= 7.59e+04
    CPU time for cycle= 1   3114.84 sec, wall time    149.23 sec
    Fermi level -26.973  Sum mo_occ_kpts = 464.0  should equal nelec = 464
    sigma = 0.1  Optimized mu = -26.8923114621  entropy = 12.6552664321
     k-point                  mo_energy/mo_occ
   0 ( 0.000  0.000  0.000)   [-42.730035 -42.71217  -42.710332 -42.698478 -40.462099 -40.461385
 -40.453759 -40.45105  -40.447147 -40.443583 -40.440619 -40.439062
 -39.548035 -39.520725 -39.519674 -39.484468 -39.464527 -39.451896
 -39.434115 -39.423928 -37.17452  -37.114329 -37.113764 -37.064538
 -37.003613 -37.00162  -36.994801 -36.965293 -36.962362 -36.954635
 -36.948813 -36.947938 -36.934929 -36.928661 -36.922575 -36.919197
 -36.417264 -36.417128 -36.409319 -36.409055 -36.403066 -36.402303
 -36.400986 -36.400363 -36.082414 -36.080244 -36.073904 -36.070701
 -35.725798 -35.691937 -35.679387 -35.639252 -33.445105 -33.393254
 -33.383899 -33.340249 -33.306423 -33.296588 -33.275705 -33.245591
 -33.055183 -33.052838 -33.018158 -33.016264 -32.507139 -32.506943
 -32.505851 -32.505431 -32.475045 -32.474684 -32.469135 -32.468868
 -32.273711 -32.272726 -32.271046 -32.26996  -32.236059 -32.23497
 -32.233756 -32.232764 -32.052142 -32.011863 -31.996445 -31.985531
 -31.966976 -31.960669 -31.943805 -31.937407 -31.738203 -31.73542
 -31.695261 -31.693152 -30.982133 -30.862127 -30.826434 -30.805091
 -30.799949 -30.789955 -30.789303 -30.778117 -30.777691 -30.765672
 -30.76092  -30.760039 -30.677263 -30.676966 -30.588069 -30.588009
 -30.398469 -30.341625 -30.339843 -30.32474  -30.297665 -30.291791
 -30.287987 -30.280498 -30.278457 -30.243679 -30.239682 -30.229341
 -30.226432 -30.215481 -30.193719 -30.176988 -30.164081 -30.163168
 -30.161403 -30.066788 -30.064574 -30.050581 -30.046852 -29.998818
 -29.876725 -29.753925 -29.746809 -29.722742 -29.715035 -29.634071
 -29.631596 -29.53317  -29.525782 -29.518205 -29.516726 -29.501074
 -29.499982 -29.45961  -29.415703 -29.414174 -29.154045 -29.154019
 -29.07345  -29.072987 -29.052021 -29.036676 -29.004844 -28.836076
 -28.835799 -28.784732 -28.772087 -28.772084 -28.714983 -28.706125
 -28.576447 -28.573554 -28.569218 -28.465978 -28.465239 -28.462215
 -28.457087 -28.457037 -28.456354 -28.42643  -28.422819 -28.419542
 -28.418917 -28.418862 -28.362749 -28.279056 -28.264179 -28.263308
 -28.251081 -28.249818 -28.238639 -28.238132 -28.192851 -28.18936
 -28.188347 -28.185469 -28.152479 -28.151567 -28.102822 -28.095868
 -28.095523 -28.08069  -28.074007 -28.054568 -28.053431 -28.02076
 -27.999317 -27.936361 -27.934637 -27.914512 -27.912291 -27.802224
 -27.799258 -27.796596 -27.793403 -27.781634 -27.781414 -27.72979
 -27.696857 -27.692138 -27.691205 -27.688447 -27.685255 -27.672066
 -27.67135  -27.625144 -27.620419 -27.520001 -27.51839  -27.325607
 -27.293223 -27.269479 -27.146082 -27.134332 -27.084731 -27.071205
 -27.064065 -27.058438 -26.993543 -26.973024 -26.972887 -26.830737
 -26.669835 -26.669537 -26.547494 -26.537715 -26.536065 -26.514057
 -26.392931 -26.390194 -26.380082 -26.379955 -26.208522 -26.208014
 -26.135458 -26.135301 -26.089811 -26.008424 -25.997609 -25.803245
 -25.786367 -25.668577 -25.657252 -25.655476 -25.608471 -25.603511
 -25.601002 -25.589381 -25.564367 -25.564227 -25.496719 -25.408151
 -25.406256 -25.344341 -25.343997 -25.268769 -25.264381 -25.255004
 -25.185171 -25.171733 -25.17109  -25.17077  -25.162889 -25.151264
 -25.144991 -25.138171 -25.128202 -25.11226  -25.099606 -25.088848
 -25.078252 -25.074581 -25.060564 -25.059413 -25.051589 -25.020269
 -25.012473 -25.01233  -24.855326 -24.854105 -24.810327 -24.791762
 -24.767875 -24.749706 -24.745504 -24.737437 -24.727822 -24.724706
 -24.701068 -24.695524 -24.691034 -24.689202 -24.659086 -24.63436
 -24.615094 -24.611905 -24.57642  -24.546335 -24.536863 -24.525324
 -24.502028 -24.501571 -24.450006 -24.442321 -24.44119  -24.433308
 -24.418727 -24.418051 -24.413041 -24.409949 -24.392942 -24.387327
 -24.382598 -24.378667 -24.339147 -24.327601 -24.271289 -24.161924
 -24.150974 -24.150575 -24.060495 -24.059339 -23.968684 -23.967234
 -23.931958 -23.930241 -23.897294 -23.879864 -23.877993 -23.832124
 -23.831936 -23.823534 -23.822089 -23.818793 -23.80783  -23.791916
 -23.791194 -23.783924 -23.774871 -23.757522 -23.63758  -23.62492
 -23.622618 -23.609566 -23.607742 -23.600339 -23.510218 -23.509285
 -23.484948 -23.484066 -23.015659 -23.015221 -22.967685 -22.962085
 -22.93433  -22.928698 -22.714853 -22.711733 -22.666048 -22.659565
 -22.646713 -22.644569 -22.635184 -22.607683 -22.581241 -22.580282
 -22.574678 -22.549367 -22.534992 -22.505727 -22.486028 -22.479262
 -22.474893 -22.473931 -22.470956 -22.46471  -22.457229 -22.448335
 -22.44148  -22.405077 -22.398754 -22.357357 -22.356912 -22.333612
 -22.172875 -22.153881 -22.152141 -22.083695 -21.92622  -21.913903
 -21.910095 -21.908836 -21.895872 -21.715401 -21.575244 -21.549915
 -21.543837 -21.525344 -21.487188 -21.46375  -21.440176 -21.438017
 -21.357726 -21.328447 -21.327041 -21.320922 -21.161151 -21.156155
 -21.117916 -20.955558 -20.942334 -20.878466 -20.871406 -20.847367
 -20.821541 -20.818821 -20.79295  -20.748696 -20.716942 -20.702167
 -20.700317 -20.66325  -20.66038  -20.641841 -20.639795 -20.636679
 -20.633591 -20.620624 -20.547277 -20.399324 -20.39779  -20.311817
 -20.244336 -20.243181 -20.23002  -20.225913 -20.033045 -20.024045
 -19.780217 -19.652959 -19.651411 -19.622365 -19.620315 -19.554527
 -19.313071 -19.312771 -19.244149 -19.241779 -18.712658 -18.711951
 -18.414609 -18.41019  -18.393008 -18.355583 -18.325892 -18.292918
 -18.282664 -18.273773 -18.270526 -18.231686 -18.19452  -18.182747
 -18.136592 -18.09645  -18.085522 -18.078028 -18.045243 -17.993361
 -17.99203  -17.97554  -17.87707  -17.873177 -17.86974  -17.861346
 -17.832757 -17.798044 -17.795291 -17.768477 -17.764786 -17.480283
 -16.948463 -16.947087 -16.774685 -16.773745 -16.761898 -16.60436
 -16.546879 -16.544063 -16.539722 -16.538302 -16.503546 -16.503379
 -16.114714 -16.114527 -15.274317 -13.994292 -13.99298  -13.955468
 -13.783789 -13.78199  -13.66975  -13.204471 -13.201365 -13.090844
 -13.084358 -12.956761 -12.956113 -12.659633 -12.65822  -12.398631
 -12.391874 -12.238014 -12.19442  -12.193415 -11.220405 -11.141119
 -11.103972 -11.037063 -11.033942 -10.899232 -10.737977 -10.734365
  -8.825171  -8.756817  -8.753028  -8.694032  -8.690368  -7.613206
  -7.605173  -7.597793  -7.520229  -7.519457  -7.362981  -7.264563
  -7.260693  -7.031205  -6.991023  -6.742629  -6.475829  -6.474205
  -6.319742  -5.154721  -5.154222  -4.951485  -4.949809  -4.705233
  -4.237731  -4.234467  -3.943449  -3.939775  -3.231118  -1.995225
  -1.992477  -1.563111  -1.562827  -1.175471  -1.011866  -0.978646
  -0.908883  -0.821378  -0.237166  -0.166633  -0.110179   0.503396
   0.534081   0.582737   0.723806   0.741489   0.772754   0.778829
   0.785708   0.842124   0.84351    0.873984   1.074577   1.108838
   1.170781   1.179296   1.181063   1.669736   1.681123   2.162765
   2.304217   2.30573    2.317018   2.408635   2.802231   2.810694
   2.81522    2.828052   3.379525   3.399816   3.855523   3.920841
   3.921958   4.158916   4.243265   4.405828   5.021334   5.022696
   6.17486    6.182724   6.426944   6.449667   6.533767   6.767433
   7.688912   7.885557   7.887919   8.080188   8.232981   8.237678
   8.301624   8.445135   8.463846   8.483494   8.645088   8.673695
   8.674394   8.695223   8.700706   8.788056   8.900442   9.095415
   9.130894   9.247211   9.250668   9.279426   9.836968  10.071039
  10.099914  10.336046  10.518843  10.540315  10.753027  10.812733
  10.935347  11.027944  11.032541  11.050394  11.265006  11.266207
  11.61951   11.637751  11.699217  11.91422   12.055677  12.058474
  12.614601  12.614964  12.782195  12.787559  12.839022  12.845323
  12.94497   12.94673   13.281134  13.399426  13.530241  13.607648
  13.694923  13.793339  13.801803  14.328198  14.370307  14.952619
  15.400006  15.405223  15.537724  16.084031  16.201103  16.215431
  16.313626  16.519536  16.60186   16.654409  16.707089  16.729496
  16.733642  17.101437  17.138899  17.658666  17.787756  17.812111
  17.90151   17.905454  18.041476  18.042712  18.287192  18.378129
  18.37866   18.462053  18.725535  18.786686  18.789425  18.876248
  18.985734  19.08995   19.167574  19.226633  19.319664  19.648794
  19.668103  19.675292  19.675727  19.705696  19.733771  19.734619
  19.744271  19.750964  19.819311  20.835285  21.327126  21.745973
  21.747403  21.78102   21.79212   22.668653  22.682514  22.688144
  22.729985  22.799295  22.864837  22.872586  22.877566  23.074263
  23.083359  23.095347  23.127973  23.143251  23.144027  23.174026
  23.189225  23.209645  23.250719  23.260466  23.383222  23.486435
  23.496447  23.803059  24.736763  24.737379  24.888497  24.917436
  24.990005  25.018215  25.409272  25.413256  25.508001  25.723165
  26.076723  26.157981  26.160749  26.236275  26.374061  26.846843
  26.848814  27.146583  27.910673  28.007766  28.024156  28.138089
  28.151579  28.204073  28.399281  28.437229  28.503566  28.523389
  29.201408  29.410254  29.410931  29.660336  29.679406  29.682129
  29.717493  29.774216  29.9037    29.908396  29.962506  29.984561
  30.185608  30.187     30.210232  30.21869   30.394186  30.396722
  30.524791  31.333275  31.36305   31.587487  31.626064  31.629951
  31.637686  31.951219  31.95543   32.057797  32.071997  32.576742
  32.633034  32.706121  32.917522  32.918591  32.962494  32.963093
  33.134016  33.136016  33.185052  33.190251  33.618275  33.911049
  34.095892  34.116081  34.135306  34.320441  34.367932  34.403887
  34.555789  34.724524  34.868525  35.306288  35.316161  35.666887
  35.698812  35.706784  35.717665  35.781525  35.869667  35.892577
  36.020503  36.023184  36.03573   36.209186  36.21298   36.385687
  36.390777  36.395741  36.435759  36.467226  36.517777  36.561003
  37.001349  37.004881  37.266591  37.820819  38.257996  38.263808
  38.307322  38.319064  38.483947  38.491622  38.569201  38.572663
  40.599528  40.70773   40.719948  40.726516  40.728677  40.758099
  40.84458   40.889655  40.901288  40.954692  41.038342  41.103464
  41.407144  41.414816  41.515315  41.612621  41.619564  41.695328
  41.701879  41.729324  41.794742  41.798173  41.888378  41.895975
  44.435166  44.449659  44.460144  44.488576  44.503012  44.531576
  44.541809  44.555425  44.566203  44.597367  44.612697  44.689371
  44.697784  44.806316  44.820815  44.918063  45.069872  45.07987
  45.147851  45.161064  45.177345  45.185254  45.214531  45.241122
  45.263652  45.292218  45.301707  45.317249  46.20086   46.218059
  46.22023   46.260959  46.267299  46.303567  46.30543   46.314925
  46.31897   46.32983   46.369148  46.387404  46.77616   46.809443
  46.819172  46.861913  46.880498  46.891959  46.924221  46.969604
  48.560132  48.581247  48.630045  48.707477  49.045446  49.047681
  49.113816  49.122501  49.137426  49.145287  49.224851  49.226765
  51.710685  51.712853  51.819331  51.832078]
                              [2.       2.       2.       2.       2.       2.       2.       2.
 2.       2.       2.       2.       2.       2.       2.       2.
 2.       2.       2.       2.       2.       2.       2.       2.
 2.       2.       2.       2.       2.       2.       2.       2.
 2.       2.       2.       2.       2.       2.       2.       2.
 2.       2.       2.       2.       2.       2.       2.       2.
 2.       2.       2.       2.       2.       2.       2.       2.
 2.       2.       2.       2.       2.       2.       2.       2.
 2.       2.       2.       2.       2.       2.       2.       2.
 2.       2.       2.       2.       2.       2.       2.       2.
 2.       2.       2.       2.       2.       2.       2.       2.
 2.       2.       2.       2.       2.       2.       2.       2.
 2.       2.       2.       2.       2.       2.       2.       2.
 2.       2.       2.       2.       2.       2.       2.       2.
 2.       2.       2.       2.       2.       2.       2.       2.
 2.       2.       2.       2.       2.       2.       2.       2.
 2.       2.       2.       2.       2.       2.       2.       2.
 2.       2.       2.       2.       2.       2.       2.       2.
 2.       2.       2.       2.       2.       2.       2.       2.
 2.       2.       2.       2.       2.       2.       2.       2.
 2.       2.       2.       2.       2.       2.       2.       2.
 2.       2.       2.       2.       2.       2.       2.       2.
 1.999999 1.999998 1.999998 1.999998 1.999997 1.999997 1.999997 1.999997
 1.999996 1.999995 1.999995 1.999995 1.999993 1.999993 1.999989 1.999988
 1.999988 1.999986 1.999985 1.999982 1.999982 1.999975 1.999969 1.999942
 1.999941 1.999927 1.999926 1.999776 1.99977  1.999764 1.999756 1.999725
 1.999725 1.999539 1.999359 1.999328 1.999322 1.999303 1.99928  1.999179
 1.999173 1.998688 1.998624 1.996249 1.996188 1.974083 1.964348 1.955008
 1.853487 1.836711 1.74521  1.713593 1.695623 1.680815 1.466944 1.382991
 1.382407 0.701501 0.195097 0.194573 0.061647 0.056064 0.055172 0.044516
 0.013468 0.013107 0.011854 0.011839 0.002142 0.002132 0.001032 0.001031
 0.000654 0.00029  0.00026  0.000037 0.000031 0.00001  0.000009 0.000009
 0.000005 0.000005 0.000005 0.000004 0.000003 0.000003 0.000002 0.000001
 0.000001 0.       0.       0.       0.       0.       0.       0.
 0.       0.       0.       0.       0.       0.       0.       0.
 0.       0.       0.       0.       0.       0.       0.       0.
 0.       0.       0.       0.       0.       0.       0.       0.
 0.       0.       0.       0.       0.       0.       0.       0.
 0.       0.       0.       0.       0.       0.       0.       0.
 0.       0.       0.       0.       0.       0.       0.       0.
 0.       0.       0.       0.       0.       0.       0.       0.
 0.       0.       0.       0.       0.       0.       0.       0.
 0.       0.       0.       0.       0.       0.       0.       0.
 0.       0.       0.       0.       0.       0.       0.       0.
 0.       0.       0.       0.       0.       0.       0.       0.
 0.       0.       0.       0.       0.       0.       0.       0.
 0.       0.       0.       0.       0.       0.       0.       0.
 0.       0.       0.       0.       0.       0.       0.       0.
 0.       0.       0.       0.       0.       0.       0.       0.
 0.       0.       0.       0.       0.       0.       0.       0.
 0.       0.       0.       0.       0.       0.       0.       0.
 0.       0.       0.       0.       0.       0.       0.       0.
 0.       0.       0.       0.       0.       0.       0.       0.
 0.       0.       0.       0.       0.       0.       0.       0.
 0.       0.       0.       0.       0.       0.       0.       0.
 0.       0.       0.       0.       0.       0.       0.       0.
 0.       0.       0.       0.       0.       0.       0.       0.
 0.       0.       0.       0.       0.       0.       0.       0.
 0.       0.       0.       0.       0.       0.       0.       0.
 0.       0.       0.       0.       0.       0.       0.       0.
 0.       0.       0.       0.       0.       0.       0.       0.
 0.       0.       0.       0.       0.       0.       0.       0.
 0.       0.       0.       0.       0.       0.       0.       0.
 0.       0.       0.       0.       0.       0.       0.       0.
 0.       0.       0.       0.       0.       0.       0.       0.
 0.       0.       0.       0.       0.       0.       0.       0.
 0.       0.       0.       0.       0.       0.       0.       0.
 0.       0.       0.       0.       0.       0.       0.       0.
 0.       0.       0.       0.       0.       0.       0.       0.
 0.       0.       0.       0.       0.       0.       0.       0.
 0.       0.       0.       0.       0.       0.       0.       0.
 0.       0.       0.       0.       0.       0.       0.       0.
 0.       0.       0.       0.       0.       0.       0.       0.
 0.       0.       0.       0.       0.       0.       0.       0.
 0.       0.       0.       0.       0.       0.       0.       0.
 0.       0.       0.       0.       0.       0.       0.       0.
 0.       0.       0.       0.       0.       0.       0.       0.
 0.       0.       0.       0.       0.       0.       0.       0.
 0.       0.       0.       0.       0.       0.       0.       0.
 0.       0.       0.       0.       0.       0.       0.       0.
 0.       0.       0.       0.       0.       0.       0.       0.
 0.       0.       0.       0.       0.       0.       0.       0.
 0.       0.       0.       0.       0.       0.       0.       0.
 0.       0.       0.       0.       0.       0.       0.       0.
 0.       0.       0.       0.       0.       0.       0.       0.
 0.       0.       0.       0.       0.       0.       0.       0.
 0.       0.       0.       0.       0.       0.       0.       0.
 0.       0.       0.       0.       0.       0.       0.       0.
 0.       0.       0.       0.       0.       0.       0.       0.
 0.       0.       0.       0.       0.       0.       0.       0.
 0.       0.       0.       0.       0.       0.       0.       0.
 0.       0.       0.       0.       0.       0.       0.       0.
 0.       0.       0.       0.       0.       0.       0.       0.
 0.       0.       0.       0.       0.       0.       0.       0.
 0.       0.       0.       0.       0.       0.       0.       0.
 0.       0.       0.       0.       0.       0.       0.       0.
 0.       0.       0.       0.       0.       0.       0.       0.
 0.       0.       0.       0.       0.       0.       0.       0.
 0.       0.       0.       0.       0.       0.       0.       0.
 0.       0.       0.       0.       0.       0.       0.       0.
 0.       0.       0.       0.       0.       0.       0.       0.
 0.       0.       0.       0.       0.       0.       0.       0.
 0.       0.       0.       0.       0.       0.       0.       0.
 0.       0.       0.       0.       0.       0.       0.       0.
 0.       0.       0.       0.       0.       0.       0.       0.
 0.       0.       0.       0.       0.       0.       0.       0.
 0.       0.       0.       0.       0.       0.       0.       0.
 0.       0.       0.       0.       0.       0.       0.       0.
 0.       0.       0.       0.       0.       0.       0.       0.
 0.       0.       0.       0.       0.       0.       0.       0.
 0.       0.       0.       0.       0.       0.       0.       0.
 0.       0.       0.       0.       0.       0.       0.       0.
 0.       0.       0.       0.       0.       0.       0.       0.
 0.       0.       0.       0.       0.       0.       0.       0.
 0.       0.       0.       0.       0.       0.       0.       0.
 0.       0.       0.       0.       0.       0.       0.       0.
 0.       0.       0.       0.       0.       0.       0.       0.
 0.       0.       0.       0.       0.       0.       0.       0.
 0.       0.       0.       0.       0.       0.       0.       0.      ]
get_k_kpts: build K from symm mo coeff
get_k_kpts: rank(dm) = 290 / 952
max_memory 408552 MB, blksize 240
    CPU time for get_k_kpts: make_kpt ki>=kj (0,*)   2976.62 sec, wall time    116.24 sec
    CPU time for buf1      75.25 sec, wall time      17.18 sec
    CPU time for ct11     966.19 sec, wall time      32.00 sec
    CPU time for ct12    1929.01 sec, wall time      65.84 sec
    CPU time for buf2       0.00 sec, wall time       0.00 sec
    CPU time for ct21       0.00 sec, wall time       0.00 sec
    CPU time for ct22       0.00 sec, wall time       0.00 sec
    CPU time for load       6.13 sec, wall time       1.19 sec
    CPU time for get_k_kpts   2976.80 sec, wall time    116.29 sec
max_memory 408552 MB, blksize 240
    CPU time for get_j pass 1     85.81 sec, wall time     26.55 sec
max_memory 408552 MB, blksize 240
    CPU time for get_j pass 2    150.36 sec, wall time     12.36 sec
    CPU time for get_j    237.23 sec, wall time     39.01 sec
    CPU time for vj and vk   3214.04 sec, wall time    155.30 sec
E1 = (-4840.97960647576+3.391959386405799e-36j)  E_coul = (7280.998228981195-2.4068820084669914e-33j)
    Total E(T) = 1498.69873128141  Free energy = 1497.43320463821  E0 = 1498.06596795981
cycle= 2 E= 1498.69873128141  delta_E= -7.5e+03  |g|= 79.2  |ddm|= 5.74e+04
    CPU time for cycle= 2   3233.76 sec, wall time    155.96 sec
    Fermi level -5.76784  Sum mo_occ_kpts = 463.99999999999994  should equal nelec = 464
    sigma = 0.1  Optimized mu = -5.69700581873  entropy = 79.1171092992
     k-point                  mo_energy/mo_occ
   0 ( 0.000  0.000  0.000)   [-17.421451 -17.412614 -17.406993 -17.399112 -15.671836 -15.67142
 -15.67088  -15.670387 -15.661711 -15.661529 -15.659446 -15.659229
 -15.458527 -15.4583   -15.448721 -15.446644 -12.705591 -12.687443
 -12.684455 -12.668595 -12.638869 -12.636377 -12.62829  -12.617663
 -12.477054 -12.476257 -12.471098 -12.468494 -12.464723 -12.461647
 -12.458961 -12.457585 -12.419825 -12.417373 -12.409087 -12.405585
 -10.361302 -10.359756 -10.358595 -10.357237  -9.946396  -9.943265
  -9.939659  -9.937391  -9.934565  -9.934077  -9.930717  -9.92357
  -9.579671  -9.561018  -9.559354  -9.551948  -9.551211  -9.550356
  -9.548219  -9.541755  -9.386112  -9.380103  -9.377402  -9.376848
  -9.375849  -9.373983  -9.373686  -9.371294  -9.289776  -9.288192
  -9.283217  -9.280895  -9.27674   -9.275334  -9.270291  -9.269124
  -8.663953  -8.663856  -8.663546  -8.663384  -8.661762  -8.661596
  -8.661345  -8.661225  -8.633966  -8.633775  -8.631836  -8.631665
  -8.611057  -8.559703  -8.554429  -8.551352  -8.270682  -8.269216
  -8.262187  -8.259687  -8.231862  -8.229055  -8.225605  -8.22323
  -7.760685  -7.741502  -7.740132  -7.707115  -7.652979  -7.585653
  -7.584718  -7.508269  -7.495276  -7.487102  -7.485448  -7.395453
  -7.395237  -7.393039  -7.38591   -7.382159  -7.10237   -7.101777
  -7.056763  -7.056065  -7.04838   -7.005137  -7.004023  -6.994752
  -6.99249   -6.988952  -6.98848   -6.948817  -6.881444  -6.881319
  -6.8542    -6.854082  -6.791786  -6.79105   -6.739121  -6.738424
  -6.729342  -6.728472  -6.617966  -6.597373  -6.597053  -6.593872
  -6.543879  -6.543518  -6.516277  -6.51596   -6.470097  -6.469507
  -6.466848  -6.46678   -6.457218  -6.456683  -6.425088  -6.367029
  -6.358851  -6.358493  -6.330262  -6.330182  -6.315589  -6.312414
  -6.309871  -6.307809  -6.306041  -6.305979  -6.305278  -6.264007
  -6.263863  -6.252222  -6.240559  -6.240378  -6.235492  -6.235348
  -6.181516  -6.166048  -6.165059  -6.164002  -6.162389  -6.161481
  -6.161114  -6.151087  -6.119535  -6.118952  -6.118596  -6.09625
  -6.095827  -6.088948  -6.087679  -6.069887  -6.069811  -6.059502
  -6.058936  -6.033998  -6.028153  -6.028055  -5.978699  -5.946199
  -5.945202  -5.925172  -5.924875  -5.909303  -5.903628  -5.903604
  -5.903424  -5.90266   -5.887132  -5.885613  -5.879011  -5.874231
  -5.873757  -5.863789  -5.863737  -5.8615    -5.861447  -5.852015
  -5.851786  -5.849987  -5.849708  -5.840194  -5.840167  -5.836236
  -5.834455  -5.831989  -5.811205  -5.810437  -5.809926  -5.809358
  -5.808445  -5.80627   -5.805293  -5.804984  -5.804392  -5.799432
  -5.798437  -5.791993  -5.791758  -5.767836  -5.736094  -5.734669
  -5.728398  -5.72817   -5.684627  -5.683843  -5.642855  -5.642421
  -5.62877   -5.600346  -5.599868  -5.599592  -5.58086   -5.580781
  -5.529997  -5.527649  -5.523967  -5.520462  -5.518788  -5.498205
  -5.496872  -5.471789  -5.470752  -5.461137  -5.439155  -5.438599
  -5.410836  -5.403384  -5.388965  -5.377824  -5.377579  -5.37713
  -5.377116  -5.371643  -5.370494  -5.361027  -5.360995  -5.357896
  -5.35782   -5.355281  -5.355094  -5.355023  -5.349655  -5.340503
  -5.34047   -5.337301  -5.333232  -5.327606  -5.324033  -5.320591
  -5.320267  -5.319956  -5.276851  -5.275644  -5.273117  -5.272898
  -5.224626  -5.21521   -5.213997  -5.213325  -5.210916  -5.209701
  -5.196352  -5.189309  -5.18178   -5.180953  -5.148084  -5.144394
  -5.144331  -5.117549  -5.117479  -5.103759  -5.099103  -5.090786
  -5.076363  -5.072047  -5.043008  -5.041126  -5.038627  -5.036798
  -4.933739  -4.933498  -4.912583  -4.911762  -4.88081   -4.880771
  -4.842929  -4.817038  -4.805366  -4.805     -4.786717  -4.778912
  -4.772605  -4.770317  -4.770312  -4.751293  -4.750591  -4.738753
  -4.71065   -4.663866  -4.663793  -4.628667  -4.544382  -4.526381
  -4.525444  -4.513553  -4.512576  -4.512527  -4.48053   -4.442608
  -4.442228  -4.419373  -4.394284  -4.394042  -4.393906  -4.384627
  -4.384608  -4.299862  -4.299686  -4.238899  -4.238803  -4.229778
  -4.211371  -4.211342  -4.184352  -4.184016  -4.164321  -4.164206
  -4.150207  -4.149942  -4.147702  -4.109948  -4.069611  -4.06952
  -4.046679  -4.046492  -4.011169  -4.009821  -3.989344  -3.980271
  -3.979768  -3.930199  -3.85867   -3.858618  -3.85404   -3.766342
  -3.763906  -3.763776  -3.712833  -3.712694  -3.712047  -3.711398
  -3.699905  -3.676454  -3.676134  -3.662933  -3.662075  -3.661278
  -3.660665  -3.619876  -3.527747  -3.527658  -3.507208  -3.495977
  -3.455421  -3.455325  -3.436175  -3.435226  -3.426642  -3.426633
  -3.404401  -3.404184  -3.387998  -3.387772  -3.382772  -3.318128
  -3.317327  -3.304904  -3.300512  -3.298858  -3.245427  -3.245358
  -3.241988  -3.239367  -3.158014  -3.115492  -3.108165  -3.107204
  -3.104508  -3.032525  -2.977958  -2.977729  -2.969813  -2.968483
  -2.967628  -2.963756  -2.948361  -2.946017  -2.945962  -2.93932
  -2.927442  -2.861356  -2.859436  -2.826201  -2.811378  -2.787424
  -2.785112  -2.760319  -2.651264  -2.650166  -2.649753  -2.64507
  -2.641367  -2.631366  -2.621451  -2.619683  -2.613835  -2.613211
  -2.590188  -2.590076  -2.58609   -2.586064  -2.567276  -2.564702
  -2.485442  -2.458029  -2.457683  -2.432607  -2.43257   -2.377744
  -2.341738  -2.341601  -2.288522  -2.26465   -2.259258  -2.258258
  -2.250373  -2.237784  -2.206713  -2.20528   -2.204181  -2.20132
  -2.193125  -2.186311  -2.183157  -2.179674  -2.177254  -2.171543
  -2.168269  -2.150584  -2.148739  -2.146987  -2.118263  -2.118119
  -2.072898  -2.072821  -2.05307   -2.029034  -2.029023  -2.014286
  -2.014258  -2.009289  -2.009221  -1.95992   -1.959822  -1.911297
  -1.899247  -1.899149  -1.883858  -1.763216  -1.763192  -1.72646
  -1.725841  -1.725     -1.712623  -1.712604  -1.704538  -1.704152
  -1.688499  -1.645799  -1.644926  -1.63285   -1.632096  -1.592212
  -1.562519  -1.56226   -1.523967  -1.452288  -1.447779  -1.403161
  -1.27759   -1.27749   -1.266824  -1.266358  -1.194597  -1.039693
  -1.038673  -1.008268  -0.939506  -0.903402  -0.865896  -0.834589
  -0.775692  -0.766438  -0.74475   -0.73401   -0.550929  -0.41142
  -0.408751  -0.383785  -0.326139  -0.326061  -0.269153  -0.267742
  -0.177144  -0.175635  -0.174584  -0.173585  -0.173344  -0.136994
  -0.106267  -0.046981  -0.046921  -0.043435  -0.041827  -0.040639
   0.006776   0.010008   0.025948   0.02649    0.026733   0.027331
   0.03079    0.031836   0.041769   0.054425   0.055565   0.073967
   0.128216   0.131356   0.132569   0.132665   0.133516   0.133568
   0.15096    0.155178   0.217345   0.226084   0.235303   0.281236
   0.281306   0.292894   0.307054   0.325263   0.327449   0.354053
   0.383583   0.435657   0.459751   0.462535   0.501531   0.501781
   0.514334   0.54435    0.561758   0.565217   0.577619   0.57897
   0.580166   0.780128   0.789758   0.856329   0.880609   0.909423
   0.944084   0.986537   1.065879   1.182123   1.18647    1.22922
   1.22992    1.262736   1.330015   1.331499   1.333918   1.399821
   1.400733   1.546575   1.560073   1.590851   1.651153   1.716602
   1.74191    1.754485   2.028944   2.076368   2.136651   2.148521
   2.423742   2.425757   2.435224   2.474822   2.478419   2.544418
   2.560725   2.669713   2.673649   2.821492   2.848501   2.948932
   3.075178   3.127176   3.212184   3.214776   3.215504   3.220898
   3.235976   3.245957   3.298752   3.517759   3.543248   3.555179
   3.59779    3.674625   3.697192   3.698584   3.704302   3.705706
   3.755092   3.755506   3.787809   3.789227   3.888072   3.967744
   3.971594   4.011866   4.018866   4.022382   4.031842   4.112742
   4.116421   4.216318   4.218361   4.461251   4.532328   4.570216
   4.693899   4.712915   4.84468    4.8466     4.897377   4.907193
   4.992494   5.051317   5.3076     5.308534   5.352215   5.352611
   5.353615   5.364547   5.406254   5.408431   5.731921   5.749387
   5.853048   5.855061   5.868583   5.88322    5.897955   5.902434
   5.936802   5.951121   5.976685   5.982825   5.995277   6.149054
   6.150765   6.166633   6.16719    6.213677   6.215775   6.278614
   6.279962   6.312043   6.516065   6.579729   6.580137   6.588232
   6.590814   6.701481   6.869863   7.345914   7.346143   7.346579
   7.356967   7.364533   7.383008   7.41165    7.450678   7.458309
   7.473921   7.476121   7.482269   7.540091   7.546818   7.556909
   7.560377   7.614939   7.620691   7.671317   7.926178   7.937797
   8.002664   8.018045   8.053148   8.055989   8.090876   8.096129
   8.117306   8.157585   8.160661   8.169607   8.2202     8.222047
   8.268846   8.289302   8.294429   8.309478   8.319335   8.338756
   8.357622   8.371336   8.388432   8.459648   8.515172   8.517102
   8.627934   8.634495   8.766479   8.789078   8.789863   8.900269
   8.920996   8.991905   8.993756   9.035508   9.140895   9.263163
   9.592128   9.600195   9.685952   9.733396   9.812222   9.832926
   9.858912   9.926993   9.957629  10.041706  10.052134  10.057479
  10.065082  10.089302  10.095922  10.12584   10.149795  10.168485
  10.180035  10.19173   10.193753  10.224137  10.24946   10.404005
  10.408677  10.476245  10.485362  10.545605  10.549148  10.722496
  10.73411   10.774436  10.791411  10.799103  10.8182    10.835206
  10.839926  10.940372  10.982442  10.984187  11.015036  11.025074
  11.153278  11.249405  11.276894  11.286388  11.422825  11.42744
  11.644629  11.656673  11.715845  11.806418  11.813166  11.923581
  11.928726  11.991166  11.992744  12.07546   12.08185   12.12092
  12.201597  12.208159  12.233236  12.241271  12.293537  12.298856
  12.301606  12.367755  12.370787  12.406925  12.410695  12.528821
  12.873194  12.874967  12.989827  13.263553  13.268031  13.298687
  13.299405  13.306325  13.378658  13.390385  13.395832  13.403994
  13.934939  13.946314  13.949054  14.023909  14.028803  14.036907
  14.08196   14.098905  14.102444  14.107881  14.108799  14.163879
  14.166676  14.185177  14.244485  14.327246  14.32932   14.366514
  14.430599  14.439262  14.442186  14.444527  14.585616  14.586067
  16.053521  16.056401  16.091576  16.101331  16.136821  16.153611
  16.157809  16.167682  16.199172  16.206148  16.236428  16.289014
  16.308874  16.309378  16.315946  16.318925  16.322766  16.329922
  16.343963  16.344438  16.36428   16.36641   16.3692    16.371833
  16.378902  16.382049  16.421152  16.423927  16.46259   16.467294
  16.47731   16.484614  16.504509  16.514586  16.532941  16.596396
  16.624197  16.633024  16.637953  16.651619  16.698325  16.712386
  16.716251  16.725481  16.873105  16.876441  16.933483  16.994141
  18.3071    18.358159  18.367013  18.458404  18.537255  18.538333
  18.597442  18.603592  18.613465  18.619071  18.702153  18.702876
  20.378316  20.379907  20.462903  20.473878]
                              [2.       2.       2.       2.       2.       2.       2.       2.
 2.       2.       2.       2.       2.       2.       2.       2.
 2.       2.       2.       2.       2.       2.       2.       2.
 2.       2.       2.       2.       2.       2.       2.       2.
 2.       2.       2.       2.       2.       2.       2.       2.
 2.       2.       2.       2.       2.       2.       2.       2.
 2.       2.       2.       2.       2.       2.       2.       2.
 2.       2.       2.       2.       2.       2.       2.       2.
 2.       2.       2.       2.       2.       2.       2.       2.
 2.       2.       2.       2.       2.       2.       2.       2.
 2.       2.       2.       2.       2.       2.       2.       2.
 2.       2.       2.       2.       2.       2.       2.       2.
 2.       2.       2.       2.       2.       2.       2.       2.
 2.       2.       2.       2.       2.       2.       2.       2.
 1.999998 1.999998 1.999998 1.999997 1.999997 1.999996 1.999996 1.999995
 1.999995 1.999995 1.999995 1.999993 1.999986 1.999986 1.999981 1.999981
 1.999965 1.999965 1.99994  1.99994  1.999934 1.999934 1.9998   1.999754
 1.999753 1.999745 1.99958  1.999579 1.999447 1.999445 1.999122 1.999117
 1.999093 1.999093 1.999002 1.998996 1.998624 1.997542 1.997333 1.997323
 1.996451 1.996449 1.995892 1.995759 1.99565  1.99556  1.995481 1.995478
 1.995446 1.993128 1.993118 1.992272 1.99132  1.991304 1.990871 1.990858
 1.984389 1.981801 1.981622 1.981429 1.98113  1.980959 1.98089  1.978896
 1.971179 1.971013 1.970911 1.96376  1.963609 1.961068 1.960581 1.953084
 1.95305  1.948084 1.947796 1.933503 1.92964  1.929574 1.887168 1.847149
 1.845734 1.814694 1.814194 1.786232 1.775152 1.775105 1.774746 1.773215
 1.740068 1.736614 1.721145 1.709476 1.708297 1.682572 1.682435 1.676413
 1.676269 1.649854 1.649192 1.643959 1.64314  1.61439  1.614304 1.60192
 1.596211 1.588205 1.516091 1.513267 1.511384 1.509284 1.505894 1.497758
 1.494075 1.492906 1.49066  1.471602 1.467727 1.442178 1.441232 1.340052
 1.192988 1.186119 1.155685 1.154571 0.938186 0.934283 0.735672 0.733655
 0.671471 0.55112  0.549212 0.548113 0.476805 0.476517 0.316826 0.310614
 0.301075 0.292222 0.288068 0.240936 0.238124 0.190326 0.188548 0.172755
 0.141069 0.140342 0.108159 0.100784 0.087846 0.078949 0.078764 0.078425
 0.078415 0.074394 0.073575 0.067152 0.067131 0.06515  0.065102 0.063521
 0.063406 0.063363 0.060151 0.055035 0.055018 0.053347 0.051275 0.048538
 0.046874 0.045324 0.045181 0.045043 0.029503 0.029154 0.028437 0.028376
 0.017606 0.016037 0.015845 0.01574  0.015368 0.015184 0.013299 0.0124
 0.011506 0.011412 0.008228 0.007931 0.007926 0.00607  0.006065 0.00529
 0.00505  0.004648 0.004025 0.003855 0.002885 0.002831 0.002761 0.002711
 0.000968 0.000966 0.000784 0.000777 0.00057  0.00057  0.000391 0.000302
 0.000268 0.000267 0.000223 0.000206 0.000193 0.000189 0.000189 0.000156
 0.000155 0.000138 0.000104 0.000065 0.000065 0.000046 0.00002  0.000016
 0.000016 0.000014 0.000014 0.000014 0.00001  0.000007 0.000007 0.000006
 0.000004 0.000004 0.000004 0.000004 0.000004 0.000002 0.000002 0.000001
 0.000001 0.000001 0.000001 0.000001 0.000001 0.000001 0.       0.
 0.       0.       0.       0.       0.       0.       0.       0.
 0.       0.       0.       0.       0.       0.       0.       0.
 0.       0.       0.       0.       0.       0.       0.       0.
 0.       0.       0.       0.       0.       0.       0.       0.
 0.       0.       0.       0.       0.       0.       0.       0.
 0.       0.       0.       0.       0.       0.       0.       0.
 0.       0.       0.       0.       0.       0.       0.       0.
 0.       0.       0.       0.       0.       0.       0.       0.
 0.       0.       0.       0.       0.       0.       0.       0.
 0.       0.       0.       0.       0.       0.       0.       0.
 0.       0.       0.       0.       0.       0.       0.       0.
 0.       0.       0.       0.       0.       0.       0.       0.
 0.       0.       0.       0.       0.       0.       0.       0.
 0.       0.       0.       0.       0.       0.       0.       0.
 0.       0.       0.       0.       0.       0.       0.       0.
 0.       0.       0.       0.       0.       0.       0.       0.
 0.       0.       0.       0.       0.       0.       0.       0.
 0.       0.       0.       0.       0.       0.       0.       0.
 0.       0.       0.       0.       0.       0.       0.       0.
 0.       0.       0.       0.       0.       0.       0.       0.
 0.       0.       0.       0.       0.       0.       0.       0.
[...]
    CPU time for load       5.94 sec, wall time       1.26 sec
    CPU time for get_k_kpts   3539.53 sec, wall time    132.81 sec
max_memory 408436 MB, blksize 240
    CPU time for get_j pass 1     86.42 sec, wall time     25.56 sec
max_memory 408436 MB, blksize 240
    CPU time for get_j pass 2    148.14 sec, wall time     12.10 sec
    CPU time for get_j    234.72 sec, wall time     37.67 sec
    CPU time for vj and vk   3774.26 sec, wall time    170.50 sec
E1 = (-1784.7595872094369-2.638860086338168e-35j)  E_coul = (6162.403047737638+8.789383211937573e-32j)
    Total E(T) = 3436.32356930418  Free energy = 3432.27678652681  E0 = 3434.30017791549
cycle= 4 E= 3436.32356930418  delta_E= 1.59e+03  |g|=  153  |ddm|= 1.74e+05
    CPU time for cycle= 4   3790.62 sec, wall time    171.03 sec
    Fermi level -1.4702  Sum mo_occ_kpts = 464.0  should equal nelec = 464
    sigma = 0.1  Optimized mu = -1.45766909893  entropy = 28.7806408758
     k-point                  mo_energy/mo_occ
   0 ( 0.000  0.000  0.000)   [-12.561269 -12.555656 -12.551903 -12.54707  -10.446121 -10.44576
 -10.444452 -10.44422  -10.436913 -10.436571 -10.435771 -10.435307
 -10.244193 -10.241482 -10.234598 -10.2319    -7.399653  -7.386165
  -7.384799  -7.372807  -7.353313  -7.351994  -7.346995  -7.339903
  -7.256236  -7.25611   -7.251429  -7.251193  -7.24827   -7.247935
  -7.245278  -7.24504   -7.220801  -7.218755  -7.214768  -7.212379
  -6.32035   -6.31335   -6.243777  -6.240406  -5.605141  -5.599832
  -5.592578  -5.591061  -5.530969  -5.528406  -5.523581  -5.516771
  -5.315407  -5.278686  -5.269002  -5.268155  -5.16605   -5.158877
  -5.083289  -5.080015  -5.000962  -5.000831  -4.96062   -4.960494
  -4.916073  -4.86708   -4.866837  -4.839279  -4.715889  -4.714225
  -4.712541  -4.707158  -4.705546  -4.705284  -4.671267  -4.659697
  -4.546215  -4.544073  -4.502002  -4.488167  -4.464979  -4.448698
  -4.447681  -4.447591  -4.444915  -4.434999  -4.42068   -4.392232
  -4.368179  -4.366269  -4.314235  -4.312848  -4.272634  -4.269782
  -4.22244   -4.221911  -4.209029  -4.205108  -4.173755  -4.168412
  -4.092682  -4.079783  -4.022779  -4.000712  -3.994264  -3.979338
  -3.963195  -3.960307  -3.953136  -3.946802  -3.935622  -3.931405
  -3.928424  -3.878049  -3.869958  -3.868189  -3.7959    -3.793013
  -3.789715  -3.763284  -3.762737  -3.752372  -3.750749  -3.710619
  -3.709748  -3.708881  -3.694199  -3.688065  -3.685851  -3.646457
  -3.639806  -3.630633  -3.600689  -3.59946   -3.581479  -3.572585
  -3.550579  -3.5496    -3.528529  -3.528083  -3.489349  -3.484361
  -3.445376  -3.424029  -3.421583  -3.395844  -3.36063   -3.358817
  -3.338205  -3.337106  -3.336647  -3.313045  -3.309692  -3.276907
  -3.275118  -3.269153  -3.150086  -3.148047  -3.137541  -3.111161
  -3.102911  -3.074153  -3.07095   -3.066722  -3.061493  -3.059247
  -3.057522  -3.012064  -2.967894  -2.961251  -2.837243  -2.833378
  -2.830291  -2.827988  -2.823917  -2.738853  -2.709305  -2.69867
  -2.616368  -2.615641  -2.561434  -2.556825  -2.546944  -2.51009
  -2.50772   -2.499658  -2.499475  -2.483984  -2.441149  -2.441086
  -2.375675  -2.375583  -2.368619  -2.366176  -2.365423  -2.2845
  -2.283839  -2.272277  -2.265338  -2.162261  -2.162125  -2.129761
  -2.111225  -2.063133  -2.057322  -2.004543  -1.999705  -1.9606
  -1.928906  -1.928712  -1.877285  -1.876902  -1.862249  -1.850629
  -1.850524  -1.818804  -1.818356  -1.818251  -1.793231  -1.791002
  -1.790188  -1.78966   -1.787496  -1.763274  -1.762864  -1.750316
  -1.749883  -1.665852  -1.665436  -1.618737  -1.617984  -1.569725
  -1.551426  -1.551338  -1.470506  -1.470198  -1.454316  -1.422179
  -1.374747  -1.366887  -1.365853  -1.282037  -1.276355  -1.260614
  -1.259393  -1.250413  -1.244008  -1.231391  -1.134077  -1.133939
  -1.130626  -1.130567  -1.03881   -0.995442  -0.995322  -0.97142
  -0.966543  -0.966439  -0.936209  -0.935991  -0.896846  -0.896104
  -0.857703  -0.857568  -0.820708  -0.819609  -0.816735  -0.816718
  -0.767803  -0.767004  -0.765876  -0.765577  -0.762731  -0.754578
  -0.748958  -0.748385  -0.724104  -0.723976  -0.699347  -0.694965
  -0.69104   -0.686732  -0.685926  -0.679915  -0.679492  -0.646837
  -0.644255  -0.637318  -0.635118  -0.634365  -0.629631  -0.625125
  -0.620251  -0.619811  -0.61952   -0.615243  -0.587098  -0.585713
  -0.580118  -0.579583  -0.575326  -0.573165  -0.555233  -0.55459
  -0.537623  -0.535808  -0.531965  -0.531325  -0.529628  -0.52886
  -0.528812  -0.508024  -0.500033  -0.496629  -0.490868  -0.489702
  -0.479106  -0.465652  -0.462533  -0.462423  -0.450909  -0.4491
  -0.446403  -0.437663  -0.429477  -0.424972  -0.41556   -0.413079
  -0.410659  -0.403554  -0.400394  -0.39865   -0.379741  -0.36957
  -0.368727  -0.363356  -0.363135  -0.358399  -0.357729  -0.352569
  -0.352389  -0.336125  -0.335791  -0.332269  -0.331907  -0.320465
  -0.297609  -0.297461  -0.252904  -0.25213   -0.250998  -0.239906
  -0.231787  -0.231221  -0.221537  -0.216041  -0.215512  -0.183681
  -0.178244  -0.115005  -0.113723  -0.060366  -0.056783  -0.043647
  -0.028531  -0.028135   0.06964    0.070133   0.123004   0.123183
   0.15585    0.156258   0.203812   0.214696   0.250718   0.338641
   0.392265   0.392303   0.407038   0.407508   0.416948   0.416987
   0.438008   0.612378   0.663828   0.664989   0.66835    0.668408
   0.671649   0.673579   0.697246   0.7007     0.712383   0.716311
   0.75628    0.757084   0.758968   0.776341   0.776792   0.776856
   0.79397    0.843041   0.848389   0.848764   0.918356   0.921815
   0.938919   0.939808   0.946388   0.969786   0.970495   0.971089
   0.981204   0.981538   1.070483   1.084999   1.094409   1.094448
   1.118234   1.118478   1.126425   1.12666    1.193019   1.197717
   1.19785    1.203236   1.203244   1.213119   1.213323   1.298374
   1.29868    1.317358   1.359078   1.367382   1.370343   1.372705
   1.374994   1.378053   1.381602   1.386432   1.389033   1.405749
   1.40715    1.4348     1.435114   1.438423   1.438762   1.447532
   1.447536   1.447925   1.447937   1.451177   1.451192   1.451609
   1.451619   1.550299   1.551298   1.604179   1.622181   1.622401
   1.695567   1.695702   1.73059    1.730659   1.757943   1.7972
   1.79846    1.8035     1.815629   1.815806   1.907476   1.981393
   1.981578   2.041226   2.04129    2.100713   2.112657   2.300579
   2.41504    2.415246   2.423085   2.444109   2.444616   2.44706
   2.447244   2.474324   2.501444   2.50269    2.507363   2.509621
   2.523714   2.524757   2.544805   2.611822   2.61201    2.705046
   2.724563   2.724722   2.733899   2.734082   2.82795    2.944497
   2.94501    2.974614   2.974629   2.975073   2.98515    2.985305
   3.041839   3.045971   3.04624    3.048745   3.049136   3.04997
   3.055846   3.097606   3.13398    3.134338   3.137888   3.141395
   3.141696   3.164994   3.190299   3.1991     3.205891   3.210976
   3.214389   3.231928   3.232027   3.261025   3.264639   3.267715
   3.282878   3.284903   3.298397   3.300123   3.333694   3.356929
   3.356957   3.361987   3.390578   3.415222   3.415352   3.446891
   3.447643   3.505465   3.506156   3.526146   3.57999    3.590749
   3.704702   3.705234   3.71812    3.71875    3.720219   3.73032
   3.762547   3.767502   3.769012   3.7691     3.782435   3.784045
   3.789142   3.802861   3.816782   3.822813   3.831678   3.846543
   3.851675   3.851948   3.86051    3.86598    3.866013   3.867493
   3.867523   3.888732   3.889643   3.891876   3.898376   3.898412
   3.901235   3.903572   3.919913   3.931002   3.935136   3.935677
   3.942535   3.943622   3.969599   3.969631   3.977086   3.977271
   3.98525    3.9859     4.000691   4.001254   4.010227   4.012173
   4.019881   4.022679   4.02462    4.037256   4.057707   4.058083
   4.065834   4.066042   4.066859   4.067959   4.067992   4.073753
   4.073765   4.090976   4.110858   4.111108   4.111565   4.11159
   4.12103    4.133554   4.133643   4.159282   4.159821   4.166197
   4.166467   4.174438   4.1748     4.194884   4.205238   4.205298
   4.210063   4.210366   4.210613   4.217083   4.228584   4.230597
   4.230853   4.232918   4.252548   4.25259    4.255105   4.25555
   4.256736   4.257206   4.258856   4.263322   4.2669     4.269757
   4.28492    4.284927   4.29145    4.291843   4.313265   4.327811
   4.327905   4.334736   4.336651   4.33731    4.337354   4.33858
   4.342259   4.343656   4.347803   4.350785   4.363282   4.364412
   4.391827   4.391881   4.392611   4.394434   4.395227   4.399287
   4.428417   4.441182   4.441673   4.48632    4.486355   4.503069
   4.510726   4.51212    4.512394   4.512628   4.514605   4.547604
   4.547894   4.551679   4.551683   4.569672   4.569844   4.572756
   4.575243   4.583735   4.588643   4.600265   4.605119   4.605304
   4.717351   4.736195   4.736867   4.754646   4.755016   4.772331
   4.774825   4.77793    4.788786   4.811201   4.815916   4.817278
   4.822367   4.829987   4.832093   4.832117   4.837831   4.838361
   4.839622   4.84684    4.853211   4.855239   4.87428    4.875983
   4.878178   4.878716   4.973094   4.976875   4.977404   4.996519
   5.031917   5.031962   5.06177    5.081373   5.101553   5.114037
   5.117413   5.118167   5.124468   5.125275   5.200057   5.20055
   5.205933   5.206005   5.221883   5.22199    5.226011   5.226042
   5.226158   5.244295   5.269908   5.344842   5.344912   5.370493
   5.37352    5.382076   5.382153   5.387423   5.387606   5.395577
   5.4004     5.400828   5.405852   5.411507   5.411553   5.411609
   5.413683   5.471065   5.471772   5.4754     5.476588   5.476644
   5.488376   5.531574   5.548566   5.548595   5.623834   5.623999
   5.636496   5.636643   5.648352   5.655968   5.656044   5.661961
   5.669718   5.670018   5.725707   5.725773   5.733046   5.734933
   5.734954   5.741036   5.741126   5.743286   5.747327   5.747424
   5.786721   5.786782   5.787605   5.790084   5.790244   5.792702
   5.79285    5.826497   5.867753   5.867828   5.887443   5.887447
   5.944293   5.944304   5.978914   5.981824   5.982283   6.016358
   6.016589   6.03951    6.039582   6.041074   6.041589   6.041969
   6.044748   6.044797   6.045391   6.092432   6.092471   6.125733
   6.125877   6.136212   6.13625    6.154348   6.167848   6.231401
   6.282067   6.282089   6.329003   6.334158   6.334995   6.335188
   6.335323   6.341635   6.342616   6.373949   6.373955   6.484997
   6.568255   6.641638   6.641987   6.646213   6.670365   6.670574
   6.728984   6.773925   6.821296   6.821306   6.823302   6.823336
   7.150383   7.172521   7.180265   7.180275   7.185205   7.185529
   7.206322   7.206367   7.211543   7.213978   7.213994   7.21728
   7.217308   7.217527   7.233176   7.236783   7.260402   7.261045
   7.261165   7.262145   7.263751   7.2641     7.273567   7.273681
   7.278724   7.278738   7.306926   7.317497   7.317508   7.322921
   7.323099   7.331011   7.332617   7.332786   7.343984   7.364491
   7.364496   7.379216   7.39702    7.407124   7.407128   7.425145
   7.425153   7.429459   7.429475   7.43133    7.487089   7.487095
   7.552188   7.555523   7.555599   7.572786   7.572792   7.616621
   7.63994    7.640301   7.683574   7.712836   7.712838   7.731684
   7.731694   7.77616    8.169484   8.169487   8.189064   8.241433
   9.143504   9.152866   9.15339    9.159491   9.871018   9.871391
   9.874899   9.875358   9.879331   9.890344   9.890539   9.901005
   9.904309   9.904479   9.909894   9.917791   9.917871   9.921814
   9.943675   9.946637   9.947158   9.983126  10.016286  10.016331
  10.178366  10.178418  10.204558  10.204626  10.321452  10.321506
  10.36192   10.361948  13.486285  13.486791  13.57389   13.623464
  17.494212  17.49441   17.544837  18.128545]
                              [2.       2.       2.       2.       2.       2.       2.       2.
 2.       2.       2.       2.       2.       2.       2.       2.
 2.       2.       2.       2.       2.       2.       2.       2.
 2.       2.       2.       2.       2.       2.       2.       2.
 2.       2.       2.       2.       2.       2.       2.       2.
 2.       2.       2.       2.       2.       2.       2.       2.
 2.       2.       2.       2.       2.       2.       2.       2.
 2.       2.       2.       2.       2.       2.       2.       2.
 2.       2.       2.       2.       2.       2.       2.       2.
 2.       2.       2.       2.       2.       2.       2.       2.
 2.       2.       2.       2.       2.       2.       2.       2.
 2.       2.       2.       2.       2.       2.       2.       2.
 2.       2.       2.       2.       2.       2.       2.       2.
 2.       2.       2.       2.       2.       2.       2.       2.
 2.       2.       2.       2.       2.       2.       2.       2.
 2.       2.       2.       2.       2.       2.       2.       2.
 2.       2.       2.       2.       2.       2.       2.       2.
 2.       2.       2.       2.       2.       2.       2.       2.
 2.       2.       2.       2.       2.       2.       2.       2.
 2.       2.       2.       2.       2.       2.       2.       2.
 2.       2.       2.       2.       1.999999 1.999999 1.999998 1.999998
 1.999998 1.999998 1.999998 1.999995 1.999993 1.999992 1.999981 1.999981
 1.999968 1.999966 1.999963 1.999946 1.999945 1.99994  1.99994  1.99993
 1.999893 1.999893 1.999794 1.999794 1.999779 1.999773 1.999772 1.999487
 1.999484 1.99942  1.999379 1.99826  1.998257 1.997592 1.997102 1.995317
 1.995038 1.991602 1.991188 1.986998 1.982193 1.982159 1.97034  1.970228
 1.96561  1.961455 1.961415 1.94739  1.947161 1.947106 1.932577 1.931109
 1.930566 1.930211 1.928739 1.910086 1.909733 1.898279 1.89786  1.778249
 1.777427 1.667012 1.664915 1.508184 1.437217 1.436861 1.064095 1.062563
 0.983238 0.824387 0.60762  0.574893 0.570665 0.294503 0.280519 0.244659
 0.24205  0.223585 0.211177 0.188505 0.075672 0.075572 0.073199 0.073158
 0.029882 0.01947  0.019446 0.015344 0.014619 0.014604 0.010814 0.010791
 0.007308 0.007254 0.004947 0.00494  0.00342  0.003382 0.003287 0.003286
 0.002016 0.002    0.001978 0.001972 0.001917 0.001767 0.00167  0.001661
 0.001303 0.001301 0.001017 0.000974 0.000936 0.000897 0.00089  0.000838
 0.000834 0.000602 0.000587 0.000547 0.000535 0.000531 0.000507 0.000484
 0.000461 0.000459 0.000458 0.000439 0.000331 0.000327 0.000309 0.000307
 0.000294 0.000288 0.000241 0.000239 0.000202 0.000198 0.000191 0.00019
 0.000186 0.000185 0.000185 0.00015  0.000139 0.000134 0.000127 0.000125
 0.000113 0.000098 0.000095 0.000095 0.000085 0.000083 0.000081 0.000074
 0.000068 0.000065 0.00006  0.000058 0.000057 0.000053 0.000051 0.00005
 0.000042 0.000038 0.000037 0.000035 0.000035 0.000034 0.000033 0.000032
 0.000032 0.000027 0.000027 0.000026 0.000026 0.000023 0.000018 0.000018
 0.000012 0.000012 0.000011 0.00001  0.000009 0.000009 0.000009 0.000008
 0.000008 0.000006 0.000006 0.000003 0.000003 0.000002 0.000002 0.000001
 0.000001 0.000001 0.       0.       0.       0.       0.       0.
 0.       0.       0.       0.       0.       0.       0.       0.
 0.       0.       0.       0.       0.       0.       0.       0.
 0.       0.       0.       0.       0.       0.       0.       0.
 0.       0.       0.       0.       0.       0.       0.       0.
 0.       0.       0.       0.       0.       0.       0.       0.
 0.       0.       0.       0.       0.       0.       0.       0.
 0.       0.       0.       0.       0.       0.       0.       0.
 0.       0.       0.       0.       0.       0.       0.       0.
 0.       0.       0.       0.       0.       0.       0.       0.
 0.       0.       0.       0.       0.       0.       0.       0.
 0.       0.       0.       0.       0.       0.       0.       0.
 0.       0.       0.       0.       0.       0.       0.       0.
 0.       0.       0.       0.       0.       0.       0.       0.
 0.       0.       0.       0.       0.       0.       0.       0.
 0.       0.       0.       0.       0.       0.       0.       0.
 0.       0.       0.       0.       0.       0.       0.       0.
 0.       0.       0.       0.       0.       0.       0.       0.
 0.       0.       0.       0.       0.       0.       0.       0.
 0.       0.       0.       0.       0.       0.       0.       0.
 0.       0.       0.       0.       0.       0.       0.       0.
 0.       0.       0.       0.       0.       0.       0.       0.
 0.       0.       0.       0.       0.       0.       0.       0.
 0.       0.       0.       0.       0.       0.       0.       0.
 0.       0.       0.       0.       0.       0.       0.       0.
 0.       0.       0.       0.       0.       0.       0.       0.
 0.       0.       0.       0.       0.       0.       0.       0.
 0.       0.       0.       0.       0.       0.       0.       0.
 0.       0.       0.       0.       0.       0.       0.       0.
 0.       0.       0.       0.       0.       0.       0.       0.
 0.       0.       0.       0.       0.       0.       0.       0.
 0.       0.       0.       0.       0.       0.       0.       0.
 0.       0.       0.       0.       0.       0.       0.       0.
 0.       0.       0.       0.       0.       0.       0.       0.
 0.       0.       0.       0.       0.       0.       0.       0.
 0.       0.       0.       0.       0.       0.       0.       0.
 0.       0.       0.       0.       0.       0.       0.       0.
 0.       0.       0.       0.       0.       0.       0.       0.
 0.       0.       0.       0.       0.       0.       0.       0.
 0.       0.       0.       0.       0.       0.       0.       0.
 0.       0.       0.       0.       0.       0.       0.       0.
 0.       0.       0.       0.       0.       0.       0.       0.
 0.       0.       0.       0.       0.       0.       0.       0.
 0.       0.       0.       0.       0.       0.       0.       0.
 0.       0.       0.       0.       0.       0.       0.       0.
 0.       0.       0.       0.       0.       0.       0.       0.
 0.       0.       0.       0.       0.       0.       0.       0.
 0.       0.       0.       0.       0.       0.       0.       0.
 0.       0.       0.       0.       0.       0.       0.       0.
 0.       0.       0.       0.       0.       0.       0.       0.
 0.       0.       0.       0.       0.       0.       0.       0.
 0.       0.       0.       0.       0.       0.       0.       0.
 0.       0.       0.       0.       0.       0.       0.       0.
 0.       0.       0.       0.       0.       0.       0.       0.
 0.       0.       0.       0.       0.       0.       0.       0.
 0.       0.       0.       0.       0.       0.       0.       0.
 0.       0.       0.       0.       0.       0.       0.       0.
 0.       0.       0.       0.       0.       0.       0.       0.
 0.       0.       0.       0.       0.       0.       0.       0.
 0.       0.       0.       0.       0.       0.       0.       0.
 0.       0.       0.       0.       0.       0.       0.       0.
 0.       0.       0.       0.       0.       0.       0.       0.
 0.       0.       0.       0.       0.       0.       0.       0.
 0.       0.       0.       0.       0.       0.       0.       0.
 0.       0.       0.       0.       0.       0.       0.       0.
 0.       0.       0.       0.       0.       0.       0.       0.
 0.       0.       0.       0.       0.       0.       0.       0.
 0.       0.       0.       0.       0.       0.       0.       0.
 0.       0.       0.       0.       0.       0.       0.       0.
 0.       0.       0.       0.       0.       0.       0.       0.
 0.       0.       0.       0.       0.       0.       0.       0.
 0.       0.       0.       0.       0.       0.       0.       0.
 0.       0.       0.       0.       0.       0.       0.       0.
 0.       0.       0.       0.       0.       0.       0.       0.      ]
get_k_kpts: build K from symm mo coeff
get_k_kpts: rank(dm) = 379 / 952
max_memory 408407 MB, blksize 240
slurmstepd: error: *** JOB 47403114 ON hpc-35-02 CANCELLED AT 2025-02-18T00:39:28 ***
