OMP_NUM_THREADS = 64
MKL_NUM_THREADS = 1
PYSCF_MAX_MEMORY = 409600
TMPDIR = /central/scratch/yangjunjie//hg1212/47401555/
PYSCF_TMPDIR = /central/scratch/yangjunjie//hg1212/47401555/

/home/junjiey/anaconda3/envs/fftisdf/bin/python
2.8.0
1.13.1
1.26.4
WARNING!
  Very diffused basis functions are found in the basis set. They may lead to severe
  linear dependence and numerical instability.  You can set  cell.exp_to_discard=0.1
  to remove the diffused Gaussians whose exponents are less than 0.1.

#INFO: **** input file is /central/home/junjiey/work/fftisdf-benchmark-new/test/hg1212-gdf/main.py ****
import os, sys
import time

from libdmet.utils.iotools import read_poscar
import libdmet.utils.logger as log

TMPDIR = os.getenv("TMPDIR", None)
DATA_PATH = os.getenv("DATA_PATH", None)
PYSCF_MAX_MEMORY = os.getenv("PYSCF_MAX_MEMORY", 4000)
PYSCF_MAX_MEMORY = int(PYSCF_MAX_MEMORY)

log.verbose = "DEBUG1"

start = time.time()

# this is the number of doped holes
nelec_dop = 0

cell = read_poscar(fname="./Hg1212-2x2.vasp")

for ke_cutoff in [50, 100, 150, 200]:
    cell.basis = 'cc-pvdz.dat'
    cell.pseudo = {
                'Cu1': 'GTH-PBE-q19', 
                'Cu2': 'GTH-PBE-q19',
                'O1': 'gth-pbe',
                'O2': 'gth-pbe',
                'Cu3': 'GTH-PBE-q19', 
                'Cu4': 'GTH-PBE-q19',
                'O3': 'gth-pbe',
                'O4': 'gth-pbe',
                'Hg': 'gth-pbe', 
                'Ba': 'gth-pbe',
                'Ca': 'gth-pbe'}

    kmesh = [1, 1, 1]
    cell.spin = 0
    cell.verbose = 5
    cell.precision = 1e-8
    cell.ke_cutoff = ke_cutoff
    cell.max_memory = PYSCF_MAX_MEMORY
    cell.build()

    kpts = cell.get_kpts(kmesh)

    from pyscf.pbc.df import GDF
    df_obj = GDF(cell, kpts=kpts)
    df_obj.verbose = 10

    from utils import scf
    scf(cell, kmesh=kmesh, df_obj=df_obj, tmp=TMPDIR, chkfile="hg1212-fftdf-%d.chk" % ke_cutoff)#INFO: ******************** input file end ********************


System: uname_result(system='Linux', node='hpc-35-01.cm.cluster', release='5.14.0-362.24.1.el9_3.x86_64', version='#1 SMP PREEMPT_DYNAMIC Thu Feb 15 07:18:13 EST 2024', machine='x86_64')  Threads 64
Python 3.9.0 (default, Nov 15 2020, 14:28:56) 
[GCC 7.3.0]
numpy 1.26.4  scipy 1.13.1  h5py 3.12.1
Date: Mon Feb 17 22:46:36 2025
PySCF version 2.8.0
PySCF path  /home/junjiey/anaconda3/envs/fftisdf/lib/python3.9/site-packages/pyscf

[ENV] PYSCF_TMPDIR /central/scratch/yangjunjie//hg1212/47401555/
[ENV] PYSCF_MAX_MEMORY 409600
[ENV] PYSCF_EXT_PATH /home/junjiey/packages/pyscf-forge/pyscf-forge-yangjunjie-non-orth/
[CONFIG] conf_file None
[INPUT] verbose = 5
[INPUT] max_memory = 409600 
[INPUT] num. atoms = 48
[INPUT] num. electrons = 464
[INPUT] charge = 0
[INPUT] spin (= nelec alpha-beta = 2S) = 0
[INPUT] symmetry False subgroup None
[INPUT] Mole.unit = A
[INPUT] Symbol           X                Y                Z      unit          X                Y                Z       unit  Magmom
[INPUT]  1 Cu1    1.927600000000   1.927600000000   4.760811090000 AA    3.642636077712   3.642636077712   8.996629090892 Bohr   0.0
[INPUT]  2 Cu1    5.782800000000   5.782800000000   4.760811090000 AA   10.927908233135  10.927908233135   8.996629090892 Bohr   0.0
[INPUT]  3 Cu2    1.927600000000   5.782800000000   4.760811090000 AA    3.642636077712  10.927908233135   8.996629090892 Bohr   0.0
[INPUT]  4 Cu2    5.782800000000   1.927600000000   4.760811090000 AA   10.927908233135   3.642636077712   8.996629090892 Bohr   0.0
[INPUT]  5 O1     1.927600000000   3.855200000000   4.770943170000 AA    3.642636077712   7.285272155423   9.015775947164 Bohr   0.0
[INPUT]  6 O1     3.855200000000   5.782800000000   4.770943170000 AA    7.285272155423  10.927908233135   9.015775947164 Bohr   0.0
[INPUT]  7 O1     5.782800000000   3.855200000000   4.770943170000 AA   10.927908233135   7.285272155423   9.015775947164 Bohr   0.0
[INPUT]  8 O1     3.855200000000   1.927600000000   4.770943170000 AA    7.285272155423   3.642636077712   9.015775947164 Bohr   0.0
[INPUT]  9 O1     0.000000000000   1.927600000000   4.770943170000 AA    0.000000000000   3.642636077712   9.015775947164 Bohr   0.0
[INPUT] 10 O1     1.927600000000   7.710400000000   4.770943170000 AA    3.642636077712  14.570544310846   9.015775947164 Bohr   0.0
[INPUT] 11 O1     7.710400000000   5.782800000000   4.770943170000 AA   14.570544310846  10.927908233135   9.015775947164 Bohr   0.0
[INPUT] 12 O1     5.782800000000   0.000000000000   4.770943170000 AA   10.927908233135   0.000000000000   9.015775947164 Bohr   0.0
[INPUT] 13 O2     1.927600000000   1.927600000000   1.985887680000 AA    3.642636077712   3.642636077712   3.752783829348 Bohr   0.0
[INPUT] 14 O2     1.927600000000   5.782800000000   1.985887680000 AA    3.642636077712  10.927908233135   3.752783829348 Bohr   0.0
[INPUT] 15 O2     5.782800000000   1.927600000000   1.985887680000 AA   10.927908233135   3.642636077712   3.752783829348 Bohr   0.0
[INPUT] 16 O2     5.782800000000   5.782800000000   1.985887680000 AA   10.927908233135  10.927908233135   3.752783829348 Bohr   0.0
[INPUT] 17 Cu3    1.927600000000   1.927600000000   7.904288910000 AA    3.642636077712   3.642636077712  14.936941249337 Bohr   0.0
[INPUT] 18 Cu3    5.782800000000   5.782800000000   7.904288910000 AA   10.927908233135  10.927908233135  14.936941249337 Bohr   0.0
[INPUT] 19 Cu4    1.927600000000   5.782800000000   7.904288910000 AA    3.642636077712  10.927908233135  14.936941249337 Bohr   0.0
[INPUT] 20 Cu4    5.782800000000   1.927600000000   7.904288910000 AA   10.927908233135   3.642636077712  14.936941249337 Bohr   0.0
[INPUT] 21 O3     1.927600000000   3.855200000000   7.894156830000 AA    3.642636077712   7.285272155423  14.917794393065 Bohr   0.0
[INPUT] 22 O3     3.855200000000   5.782800000000   7.894156830000 AA    7.285272155423  10.927908233135  14.917794393065 Bohr   0.0
[INPUT] 23 O3     5.782800000000   3.855200000000   7.894156830000 AA   10.927908233135   7.285272155423  14.917794393065 Bohr   0.0
[INPUT] 24 O3     3.855200000000   1.927600000000   7.894156830000 AA    7.285272155423   3.642636077712  14.917794393065 Bohr   0.0
[INPUT] 25 O3     0.000000000000   1.927600000000   7.894156830000 AA    0.000000000000   3.642636077712  14.917794393065 Bohr   0.0
[INPUT] 26 O3     1.927600000000   7.710400000000   7.894156830000 AA    3.642636077712  14.570544310846  14.917794393065 Bohr   0.0
[INPUT] 27 O3     7.710400000000   5.782800000000   7.894156830000 AA   14.570544310846  10.927908233135  14.917794393065 Bohr   0.0
[INPUT] 28 O3     5.782800000000   0.000000000000   7.894156830000 AA   10.927908233135   0.000000000000  14.917794393065 Bohr   0.0
[INPUT] 29 O4     1.927600000000   1.927600000000  10.679212320000 AA    3.642636077712   3.642636077712  20.180786510881 Bohr   0.0
[INPUT] 30 O4     1.927600000000   5.782800000000  10.679212320000 AA    3.642636077712  10.927908233135  20.180786510881 Bohr   0.0
[INPUT] 31 O4     5.782800000000   1.927600000000  10.679212320000 AA   10.927908233135   3.642636077712  20.180786510881 Bohr   0.0
[INPUT] 32 O4     5.782800000000   5.782800000000  10.679212320000 AA   10.927908233135  10.927908233135  20.180786510881 Bohr   0.0
[INPUT] 33 Hg     1.927600000000   1.927600000000   0.000000000000 AA    3.642636077712   3.642636077712   0.000000000000 Bohr   0.0
[INPUT] 34 Hg     5.782800000000   5.782800000000   0.000000000000 AA   10.927908233135  10.927908233135   0.000000000000 Bohr   0.0
[INPUT] 35 Hg     1.927600000000   5.782800000000   0.000000000000 AA    3.642636077712  10.927908233135   0.000000000000 Bohr   0.0
[INPUT] 36 Hg     5.782800000000   1.927600000000   0.000000000000 AA   10.927908233135   3.642636077712   0.000000000000 Bohr   0.0
[INPUT] 37 Ba     0.000000000000   3.855200000000   2.786322000000 AA    0.000000000000   7.285272155423   5.265385474850 Bohr   0.0
[INPUT] 38 Ba     3.855200000000   7.710400000000   2.786322000000 AA    7.285272155423  14.570544310846   5.265385474850 Bohr   0.0
[INPUT] 39 Ba     3.855200000000   3.855200000000   2.786322000000 AA    7.285272155423   7.285272155423   5.265385474850 Bohr   0.0
[INPUT] 40 Ba     7.710400000000   0.000000000000   2.786322000000 AA   14.570544310846   0.000000000000   5.265385474850 Bohr   0.0
[INPUT] 41 Ba     0.000000000000   3.855200000000   9.878778000000 AA    0.000000000000   7.285272155423  18.668184865379 Bohr   0.0
[INPUT] 42 Ba     3.855200000000   7.710400000000   9.878778000000 AA    7.285272155423  14.570544310846  18.668184865379 Bohr   0.0
[INPUT] 43 Ba     3.855200000000   3.855200000000   9.878778000000 AA    7.285272155423   7.285272155423  18.668184865379 Bohr   0.0
[INPUT] 44 Ba     7.710400000000   0.000000000000   9.878778000000 AA   14.570544310846   0.000000000000  18.668184865379 Bohr   0.0
[INPUT] 45 Ca     0.000000000000   3.855200000000   6.332550000000 AA    0.000000000000   7.285272155423  11.966785170114 Bohr   0.0
[INPUT] 46 Ca     3.855200000000   7.710400000000   6.332550000000 AA    7.285272155423  14.570544310846  11.966785170114 Bohr   0.0
[INPUT] 47 Ca     3.855200000000   3.855200000000   6.332550000000 AA    7.285272155423   7.285272155423  11.966785170114 Bohr   0.0
[INPUT] 48 Ca     7.710400000000   0.000000000000   6.332550000000 AA   14.570544310846   0.000000000000  11.966785170114 Bohr   0.0
[INPUT] ---------------- BASIS SET ---------------- 
[INPUT] l, kappa, [nprim/nctr], expnt,             c_1 c_2 ...
[INPUT] Ca
[INPUT] 0    0    [4    /2   ]  7.213557          -0.04811677 0.06509227
                                3.953199          0.2795449 -0.3375291
                                0.887945          -0.5055939 0.5085903
                                0.381928          -0.4403097 0.318967
[INPUT] 0    0    [1    /1   ]  0.044801             1
[INPUT] 1    0    [4    /2   ]  5.522531          0.06327636 0.004842917
                                1.446307          -0.5437431 -0.003188125
                                0.605733          -0.788295 -0.06033881
                                0.239083          -0.280026 0.09655471
[INPUT] 1    0    [1    /1   ]  0.062765             1
[INPUT] 2    0    [4    /1   ]  3.010924          0.04928622
                                1.064269          0.1087188
                                0.31668           0.210131
                                0.175804          -0.03737671
[INPUT] 2    0    [1    /1   ]  0.073715             1
[INPUT] Cu4
[INPUT] 0    0    [4    /2   ]  9.083669          -0.3622183 0.1093857
                                2.375895          0.7613242 -0.1645715
                                0.936687          0.5169596 0.03951353
                                0.116029          -0.08984813 -0.6615456
[INPUT] 0    0    [1    /1   ]  0.041075             1
[INPUT] 1    0    [5    /2   ]  11.566615         -0.1354626 0.02324231
                                4.918638          0.4749338 -0.075312
                                2.290556          0.709813 -0.02250031
                                1.043427          0.4923407 -0.1498897
                                0.429044          0.09926123 0.1645767
[INPUT] 1    0    [1    /1   ]  0.13904              1
[INPUT] 2    0    [3    /1   ]  8.082843          -0.3663286
                                3.149999          -0.5868172
                                1.067441          -0.6124219
[INPUT] 2    0    [1    /1   ]  0.308911             1
[INPUT] 3    0    [2    /1   ]  4.078302          -0.4962922
                                1.072255          -0.8681555
[INPUT] Ba
[INPUT] 0    0    [3    /2   ]  4.860079          -0.02877241 0.02157408
                                1.399001          0.3828487 -0.2577906
                                0.40271           -0.784284 0.3891714
[INPUT] 0    0    [1    /1   ]  0.115922             1
[INPUT] 0    0    [1    /1   ]  0.033369             1
[INPUT] 1    0    [4    /1   ]  3.592628          0.04674179
                                1.573935          -0.351962
                                0.689543          0.5167405
                                0.30209           0.7478454
[INPUT] 1    0    [1    /1   ]  0.132346             1
[INPUT] 1    0    [1    /1   ]  0.042656             1
[INPUT] 2    0    [5    /1   ]  1.680976          0.05054502
                                0.883691          -0.07506956
                                0.464558          -0.05025319
                                0.244219          -0.4749195
                                0.128386          0.1435246
[INPUT] 2    0    [1    /1   ]  0.067493             1
[INPUT] Cu2
[INPUT] 0    0    [4    /2   ]  9.083669          -0.3622183 0.1093857
                                2.375895          0.7613242 -0.1645715
                                0.936687          0.5169596 0.03951353
                                0.116029          -0.08984813 -0.6615456
[INPUT] 0    0    [1    /1   ]  0.041075             1
[INPUT] 1    0    [5    /2   ]  11.566615         -0.1354626 0.02324231
                                4.918638          0.4749338 -0.075312
                                2.290556          0.709813 -0.02250031
                                1.043427          0.4923407 -0.1498897
                                0.429044          0.09926123 0.1645767
[INPUT] 1    0    [1    /1   ]  0.13904              1
[INPUT] 2    0    [3    /1   ]  8.082843          -0.3663286
                                3.149999          -0.5868172
                                1.067441          -0.6124219
[INPUT] 2    0    [1    /1   ]  0.308911             1
[INPUT] 3    0    [2    /1   ]  4.078302          -0.4962922
                                1.072255          -0.8681555
[INPUT] O3
[INPUT] 0    0    [5    /1   ]  14.482841         -0.03658934
                                6.284704          -0.1303224
                                1.164884          0.3769821
                                0.468441          0.5431582
                                0.184961          0.208414
[INPUT] 0    0    [1    /1   ]  0.221262             1
[INPUT] 1    0    [5    /1   ]  10.213949         0.06086918
                                3.622324          0.1870524
                                1.299051          0.3714779
                                0.463791          0.4256889
                                0.157848          0.208873
[INPUT] 1    0    [1    /1   ]  0.27467              1
[INPUT] 2    0    [1    /1   ]  1.200187             1
[INPUT] O1
[INPUT] 0    0    [5    /1   ]  14.482841         -0.03658934
                                6.284704          -0.1303224
                                1.164884          0.3769821
                                0.468441          0.5431582
                                0.184961          0.208414
[INPUT] 0    0    [1    /1   ]  0.221262             1
[INPUT] 1    0    [5    /1   ]  10.213949         0.06086918
                                3.622324          0.1870524
                                1.299051          0.3714779
                                0.463791          0.4256889
                                0.157848          0.208873
[INPUT] 1    0    [1    /1   ]  0.27467              1
[INPUT] 2    0    [1    /1   ]  1.200187             1
[INPUT] Cu3
[INPUT] 0    0    [4    /2   ]  9.083669          -0.3622183 0.1093857
                                2.375895          0.7613242 -0.1645715
                                0.936687          0.5169596 0.03951353
                                0.116029          -0.08984813 -0.6615456
[INPUT] 0    0    [1    /1   ]  0.041075             1
[INPUT] 1    0    [5    /2   ]  11.566615         -0.1354626 0.02324231
                                4.918638          0.4749338 -0.075312
                                2.290556          0.709813 -0.02250031
                                1.043427          0.4923407 -0.1498897
                                0.429044          0.09926123 0.1645767
[INPUT] 1    0    [1    /1   ]  0.13904              1
[INPUT] 2    0    [3    /1   ]  8.082843          -0.3663286
                                3.149999          -0.5868172
                                1.067441          -0.6124219
[INPUT] 2    0    [1    /1   ]  0.308911             1
[INPUT] 3    0    [2    /1   ]  4.078302          -0.4962922
                                1.072255          -0.8681555
[INPUT] O2
[INPUT] 0    0    [5    /1   ]  14.482841         -0.03658934
                                6.284704          -0.1303224
                                1.164884          0.3769821
                                0.468441          0.5431582
                                0.184961          0.208414
[INPUT] 0    0    [1    /1   ]  0.221262             1
[INPUT] 1    0    [5    /1   ]  10.213949         0.06086918
                                3.622324          0.1870524
                                1.299051          0.3714779
                                0.463791          0.4256889
                                0.157848          0.208873
[INPUT] 1    0    [1    /1   ]  0.27467              1
[INPUT] 2    0    [1    /1   ]  1.200187             1
[INPUT] O4
[INPUT] 0    0    [5    /1   ]  14.482841         -0.03658934
                                6.284704          -0.1303224
                                1.164884          0.3769821
                                0.468441          0.5431582
                                0.184961          0.208414
[INPUT] 0    0    [1    /1   ]  0.221262             1
[INPUT] 1    0    [5    /1   ]  10.213949         0.06086918
                                3.622324          0.1870524
                                1.299051          0.3714779
                                0.463791          0.4256889
                                0.157848          0.208873
[INPUT] 1    0    [1    /1   ]  0.27467              1
[INPUT] 2    0    [1    /1   ]  1.200187             1
[INPUT] Hg
[INPUT] 0    0    [2    /1   ]  1.9157            0.135789
                                0.979308          -0.4520937
[INPUT] 0    0    [1    /1   ]  0.150255             1
[INPUT] 0    0    [1    /1   ]  0.054019             1
[INPUT] 1    0    [2    /1   ]  2.173806          -0.008329602
                                0.867935          0.04694467
[INPUT] 1    0    [1    /1   ]  0.34654              1
[INPUT] 1    0    [1    /1   ]  0.138363             1
[INPUT] 2    0    [3    /1   ]  3.674806          0.02455544
                                1.622342          -0.6047205
                                0.768788          -0.6547334
[INPUT] 2    0    [1    /1   ]  0.339247             1
[INPUT] 2    0    [1    /1   ]  0.136379             1
[INPUT] 3    0    [2    /1   ]  1.330141          0.5428473
                                0.507359          0.8398314
[INPUT] Cu1
[INPUT] 0    0    [4    /2   ]  9.083669          -0.3622183 0.1093857
                                2.375895          0.7613242 -0.1645715
                                0.936687          0.5169596 0.03951353
                                0.116029          -0.08984813 -0.6615456
[INPUT] 0    0    [1    /1   ]  0.041075             1
[INPUT] 1    0    [5    /2   ]  11.566615         -0.1354626 0.02324231
                                4.918638          0.4749338 -0.075312
                                2.290556          0.709813 -0.02250031
                                1.043427          0.4923407 -0.1498897
                                0.429044          0.09926123 0.1645767
[INPUT] 1    0    [1    /1   ]  0.13904              1
[INPUT] 2    0    [3    /1   ]  8.082843          -0.3663286
                                3.149999          -0.5868172
                                1.067441          -0.6124219
[INPUT] 2    0    [1    /1   ]  0.308911             1
[INPUT] 3    0    [2    /1   ]  4.078302          -0.4962922
                                1.072255          -0.8681555

Ewald components = 514.671494873007, -1896.43816646742, 440.44678037039
nuclear repulsion = -941.319891224022
number of shells = 304
number of NR pGTOs = 1976
number of NR cGTOs = 952
basis = cc-pvdz.dat
ecp = {}
CPU time:        14.90
lattice vectors  a1 [14.570544311, 0.000000000, 0.000000000]
                 a2 [0.000000000, 14.570544311, 0.000000000]
                 a3 [0.000000000, 0.000000000, 23.933570340]
dimension = 3
low_dim_ft_type = None
Cell volume = 5081.12
rcut = 37.04881233010331 (nimgs = [3 3 2])
lattice sum = 447 cells
precision = 1e-08
pseudo = {'Cu1': 'GTH-PBE-q19', 'Cu2': 'GTH-PBE-q19', 'O1': 'gth-pbe', 'O2': 'gth-pbe', 'Cu3': 'GTH-PBE-q19', 'Cu4': 'GTH-PBE-q19', 'O3': 'gth-pbe', 'O4': 'gth-pbe', 'Hg': 'gth-pbe', 'Ba': 'gth-pbe', 'Ca': 'gth-pbe'}
ke_cutoff = 50
    = [49 49 79] mesh (189679 PWs)
Density of valence part of ANO basis will be used as initial guess for Hg
Density of valence part of ANO basis will be used as initial guess for Ba
Density of valence part of ANO basis will be used as initial guess for Ca
Big error detected in the electron number of initial guess density matrix (Ne/cell = 457.562)!
  This can cause huge error in Fock matrix and lead to instability in SCF for low-dimensional systems.
  DM is normalized wrt the number of electrons 464.0


******** <class 'pyscf.pbc.df.df.GDF'> ********
auxbasis = None
exp_to_discard = None
_cderi_to_save = /central/scratch/yangjunjie/hg1212/47401555/tmpa30meajr
len(kpts) = 1
    kpts = [[0. 0. 0.]]
ETB for Ca: l = 0, exps = 0.089602 * 2^n , n = 0..7
ETB for Ca: l = 1, exps = 0.10605535846905616 * 2^n , n = 0..6
ETB for Ca: l = 2, exps = 0.11493486355323175 * 2^n , n = 0..6
ETB for Ca: l = 3, exps = 0.13604002315495245 * 2^n , n = 0..5
ETB for Ca: l = 4, exps = 0.14743 * 2^n , n = 0..5
ETB for Cu4: l = 0, exps = 0.08215 * 2^n , n = 0..7
ETB for Cu4: l = 1, exps = 0.1511432168507737 * 2^n , n = 0..7
ETB for Cu4: l = 2, exps = 0.225286655840953 * 2^n , n = 0..6
ETB for Cu4: l = 3, exps = 0.4144923904729736 * 2^n , n = 0..5
ETB for Cu4: l = 4, exps = 0.617822 * 2^n , n = 0..4
ETB for Cu4: l = 5, exps = 1.151054063552186 * 2^n , n = 0..3
ETB for Cu4: l = 6, exps = 2.14451 * 2^n , n = 0..2
ETB for Ba: l = 0, exps = 0.066738 * 2^n , n = 0..7
ETB for Ba: l = 1, exps = 0.07545563104235495 * 2^n , n = 0..6
ETB for Ba: l = 2, exps = 0.085312 * 2^n , n = 0..6
ETB for Ba: l = 3, exps = 0.10731228090018402 * 2^n , n = 0..5
ETB for Ba: l = 4, exps = 0.134986 * 2^n , n = 0..4
ETB for Cu2: l = 0, exps = 0.08215 * 2^n , n = 0..7
ETB for Cu2: l = 1, exps = 0.1511432168507737 * 2^n , n = 0..7
ETB for Cu2: l = 2, exps = 0.225286655840953 * 2^n , n = 0..6
ETB for Cu2: l = 3, exps = 0.4144923904729736 * 2^n , n = 0..5
ETB for Cu2: l = 4, exps = 0.617822 * 2^n , n = 0..4
ETB for Cu2: l = 5, exps = 1.151054063552186 * 2^n , n = 0..3
ETB for Cu2: l = 6, exps = 2.14451 * 2^n , n = 0..2
ETB for O3: l = 0, exps = 0.369922 * 2^n , n = 0..6
ETB for O3: l = 1, exps = 0.34173512507788834 * 2^n , n = 0..6
ETB for O3: l = 2, exps = 0.315696 * 2^n , n = 0..6
ETB for O3: l = 3, exps = 0.8705104653615601 * 2^n , n = 0..3
ETB for O3: l = 4, exps = 2.400374 * 2^n , n = 0..0
ETB for O1: l = 0, exps = 0.369922 * 2^n , n = 0..6
ETB for O1: l = 1, exps = 0.34173512507788834 * 2^n , n = 0..6
ETB for O1: l = 2, exps = 0.315696 * 2^n , n = 0..6
ETB for O1: l = 3, exps = 0.8705104653615601 * 2^n , n = 0..3
ETB for O1: l = 4, exps = 2.400374 * 2^n , n = 0..0
ETB for Cu3: l = 0, exps = 0.08215 * 2^n , n = 0..7
ETB for Cu3: l = 1, exps = 0.1511432168507737 * 2^n , n = 0..7
ETB for Cu3: l = 2, exps = 0.225286655840953 * 2^n , n = 0..6
ETB for Cu3: l = 3, exps = 0.4144923904729736 * 2^n , n = 0..5
ETB for Cu3: l = 4, exps = 0.617822 * 2^n , n = 0..4
ETB for Cu3: l = 5, exps = 1.151054063552186 * 2^n , n = 0..3
ETB for Cu3: l = 6, exps = 2.14451 * 2^n , n = 0..2
ETB for O2: l = 0, exps = 0.369922 * 2^n , n = 0..6
ETB for O2: l = 1, exps = 0.34173512507788834 * 2^n , n = 0..6
ETB for O2: l = 2, exps = 0.315696 * 2^n , n = 0..6
ETB for O2: l = 3, exps = 0.8705104653615601 * 2^n , n = 0..3
ETB for O2: l = 4, exps = 2.400374 * 2^n , n = 0..0
ETB for O4: l = 0, exps = 0.369922 * 2^n , n = 0..6
ETB for O4: l = 1, exps = 0.34173512507788834 * 2^n , n = 0..6
ETB for O4: l = 2, exps = 0.315696 * 2^n , n = 0..6
ETB for O4: l = 3, exps = 0.8705104653615601 * 2^n , n = 0..3
ETB for O4: l = 4, exps = 2.400374 * 2^n , n = 0..0
ETB for Hg: l = 0, exps = 0.108038 * 2^n , n = 0..5
ETB for Hg: l = 1, exps = 0.1729072687540926 * 2^n , n = 0..4
ETB for Hg: l = 2, exps = 0.17166312592982802 * 2^n , n = 0..4
ETB for Hg: l = 3, exps = 0.27473483635680424 * 2^n , n = 0..4
ETB for Hg: l = 4, exps = 0.272758 * 2^n , n = 0..4
ETB for Hg: l = 5, exps = 0.5260916766534137 * 2^n , n = 0..3
ETB for Hg: l = 6, exps = 1.014718 * 2^n , n = 0..1
ETB for Cu1: l = 0, exps = 0.08215 * 2^n , n = 0..7
ETB for Cu1: l = 1, exps = 0.1511432168507737 * 2^n , n = 0..7
ETB for Cu1: l = 2, exps = 0.225286655840953 * 2^n , n = 0..6
ETB for Cu1: l = 3, exps = 0.4144923904729736 * 2^n , n = 0..5
ETB for Cu1: l = 4, exps = 0.617822 * 2^n , n = 0..4
ETB for Cu1: l = 5, exps = 1.151054063552186 * 2^n , n = 0..3
ETB for Cu1: l = 6, exps = 2.14451 * 2^n , n = 0..2

WARN: Even tempered Gaussians are generated as DF auxbasis for  Ca Cu4 Ba Cu2 O3 O1 Cu3 O2 O4 Hg Cu1

  ETB auxbasis for Ca  [[0, [11.469056, 1]], [0, [5.734528, 1]], [0, [2.867264, 1]], [0, [1.433632, 1]], [0, [0.716816, 1]], [0, [0.358408, 1]], [0, [0.179204, 1]], [0, [0.089602, 1]], [1, [6.787542942019594, 1]], [1, [3.393771471009797, 1]], [1, [1.6968857355048985, 1]], [1, [0.8484428677524493, 1]], [1, [0.42422143387622463, 1]], [1, [0.21211071693811231, 1]], [1, [0.10605535846905616, 1]], [2, [7.355831267406832, 1]], [2, [3.677915633703416, 1]], [2, [1.838957816851708, 1]], [2, [0.919478908425854, 1]], [2, [0.459739454212927, 1]], [2, [0.2298697271064635, 1]], [2, [0.11493486355323175, 1]], [3, [4.353280740958478, 1]], [3, [2.176640370479239, 1]], [3, [1.0883201852396196, 1]], [3, [0.5441600926198098, 1]], [3, [0.2720800463099049, 1]], [3, [0.13604002315495245, 1]], [4, [4.71776, 1]], [4, [2.35888, 1]], [4, [1.17944, 1]], [4, [0.58972, 1]], [4, [0.29486, 1]], [4, [0.14743, 1]]]
  ETB auxbasis for Cu4  [[0, [10.5152, 1]], [0, [5.2576, 1]], [0, [2.6288, 1]], [0, [1.3144, 1]], [0, [0.6572, 1]], [0, [0.3286, 1]], [0, [0.1643, 1]], [0, [0.08215, 1]], [1, [19.346331756899033, 1]], [1, [9.673165878449517, 1]], [1, [4.836582939224758, 1]], [1, [2.418291469612379, 1]], [1, [1.2091457348061896, 1]], [1, [0.6045728674030948, 1]], [1, [0.3022864337015474, 1]], [1, [0.1511432168507737, 1]], [2, [14.418345973820992, 1]], [2, [7.209172986910496, 1]], [2, [3.604586493455248, 1]], [2, [1.802293246727624, 1]], [2, [0.901146623363812, 1]], [2, [0.450573311681906, 1]], [2, [0.225286655840953, 1]], [3, [13.263756495135155, 1]], [3, [6.6318782475675775, 1]], [3, [3.3159391237837887, 1]], [3, [1.6579695618918944, 1]], [3, [0.8289847809459472, 1]], [3, [0.4144923904729736, 1]], [4, [9.885152, 1]], [4, [4.942576, 1]], [4, [2.471288, 1]], [4, [1.235644, 1]], [4, [0.617822, 1]], [5, [9.208432508417488, 1]], [5, [4.604216254208744, 1]], [5, [2.302108127104372, 1]], [5, [1.151054063552186, 1]], [6, [8.57804, 1]], [6, [4.28902, 1]], [6, [2.14451, 1]]]
  ETB auxbasis for Ba  [[0, [8.542464, 1]], [0, [4.271232, 1]], [0, [2.135616, 1]], [0, [1.067808, 1]], [0, [0.533904, 1]], [0, [0.266952, 1]], [0, [0.133476, 1]], [0, [0.066738, 1]], [1, [4.829160386710717, 1]], [1, [2.4145801933553583, 1]], [1, [1.2072900966776792, 1]], [1, [0.6036450483388396, 1]], [1, [0.3018225241694198, 1]], [1, [0.1509112620847099, 1]], [1, [0.07545563104235495, 1]], [2, [5.459968, 1]], [2, [2.729984, 1]], [2, [1.364992, 1]], [2, [0.682496, 1]], [2, [0.341248, 1]], [2, [0.170624, 1]], [2, [0.085312, 1]], [3, [3.4339929888058887, 1]], [3, [1.7169964944029443, 1]], [3, [0.8584982472014722, 1]], [3, [0.4292491236007361, 1]], [3, [0.21462456180036804, 1]], [3, [0.10731228090018402, 1]], [4, [2.159776, 1]], [4, [1.079888, 1]], [4, [0.539944, 1]], [4, [0.269972, 1]], [4, [0.134986, 1]]]
  ETB auxbasis for Cu2  [[0, [10.5152, 1]], [0, [5.2576, 1]], [0, [2.6288, 1]], [0, [1.3144, 1]], [0, [0.6572, 1]], [0, [0.3286, 1]], [0, [0.1643, 1]], [0, [0.08215, 1]], [1, [19.346331756899033, 1]], [1, [9.673165878449517, 1]], [1, [4.836582939224758, 1]], [1, [2.418291469612379, 1]], [1, [1.2091457348061896, 1]], [1, [0.6045728674030948, 1]], [1, [0.3022864337015474, 1]], [1, [0.1511432168507737, 1]], [2, [14.418345973820992, 1]], [2, [7.209172986910496, 1]], [2, [3.604586493455248, 1]], [2, [1.802293246727624, 1]], [2, [0.901146623363812, 1]], [2, [0.450573311681906, 1]], [2, [0.225286655840953, 1]], [3, [13.263756495135155, 1]], [3, [6.6318782475675775, 1]], [3, [3.3159391237837887, 1]], [3, [1.6579695618918944, 1]], [3, [0.8289847809459472, 1]], [3, [0.4144923904729736, 1]], [4, [9.885152, 1]], [4, [4.942576, 1]], [4, [2.471288, 1]], [4, [1.235644, 1]], [4, [0.617822, 1]], [5, [9.208432508417488, 1]], [5, [4.604216254208744, 1]], [5, [2.302108127104372, 1]], [5, [1.151054063552186, 1]], [6, [8.57804, 1]], [6, [4.28902, 1]], [6, [2.14451, 1]]]
  ETB auxbasis for O3  [[0, [23.675008, 1]], [0, [11.837504, 1]], [0, [5.918752, 1]], [0, [2.959376, 1]], [0, [1.479688, 1]], [0, [0.739844, 1]], [0, [0.369922, 1]], [1, [21.871048004984853, 1]], [1, [10.935524002492427, 1]], [1, [5.467762001246213, 1]], [1, [2.7338810006231067, 1]], [1, [1.3669405003115533, 1]], [1, [0.6834702501557767, 1]], [1, [0.34173512507788834, 1]], [2, [20.204544, 1]], [2, [10.102272, 1]], [2, [5.051136, 1]], [2, [2.525568, 1]], [2, [1.262784, 1]], [2, [0.631392, 1]], [2, [0.315696, 1]], [3, [6.964083722892481, 1]], [3, [3.4820418614462403, 1]], [3, [1.7410209307231201, 1]], [3, [0.8705104653615601, 1]], [4, [2.400374, 1]]]
  ETB auxbasis for O1  [[0, [23.675008, 1]], [0, [11.837504, 1]], [0, [5.918752, 1]], [0, [2.959376, 1]], [0, [1.479688, 1]], [0, [0.739844, 1]], [0, [0.369922, 1]], [1, [21.871048004984853, 1]], [1, [10.935524002492427, 1]], [1, [5.467762001246213, 1]], [1, [2.7338810006231067, 1]], [1, [1.3669405003115533, 1]], [1, [0.6834702501557767, 1]], [1, [0.34173512507788834, 1]], [2, [20.204544, 1]], [2, [10.102272, 1]], [2, [5.051136, 1]], [2, [2.525568, 1]], [2, [1.262784, 1]], [2, [0.631392, 1]], [2, [0.315696, 1]], [3, [6.964083722892481, 1]], [3, [3.4820418614462403, 1]], [3, [1.7410209307231201, 1]], [3, [0.8705104653615601, 1]], [4, [2.400374, 1]]]
  ETB auxbasis for Cu3  [[0, [10.5152, 1]], [0, [5.2576, 1]], [0, [2.6288, 1]], [0, [1.3144, 1]], [0, [0.6572, 1]], [0, [0.3286, 1]], [0, [0.1643, 1]], [0, [0.08215, 1]], [1, [19.346331756899033, 1]], [1, [9.673165878449517, 1]], [1, [4.836582939224758, 1]], [1, [2.418291469612379, 1]], [1, [1.2091457348061896, 1]], [1, [0.6045728674030948, 1]], [1, [0.3022864337015474, 1]], [1, [0.1511432168507737, 1]], [2, [14.418345973820992, 1]], [2, [7.209172986910496, 1]], [2, [3.604586493455248, 1]], [2, [1.802293246727624, 1]], [2, [0.901146623363812, 1]], [2, [0.450573311681906, 1]], [2, [0.225286655840953, 1]], [3, [13.263756495135155, 1]], [3, [6.6318782475675775, 1]], [3, [3.3159391237837887, 1]], [3, [1.6579695618918944, 1]], [3, [0.8289847809459472, 1]], [3, [0.4144923904729736, 1]], [4, [9.885152, 1]], [4, [4.942576, 1]], [4, [2.471288, 1]], [4, [1.235644, 1]], [4, [0.617822, 1]], [5, [9.208432508417488, 1]], [5, [4.604216254208744, 1]], [5, [2.302108127104372, 1]], [5, [1.151054063552186, 1]], [6, [8.57804, 1]], [6, [4.28902, 1]], [6, [2.14451, 1]]]
  ETB auxbasis for O2  [[0, [23.675008, 1]], [0, [11.837504, 1]], [0, [5.918752, 1]], [0, [2.959376, 1]], [0, [1.479688, 1]], [0, [0.739844, 1]], [0, [0.369922, 1]], [1, [21.871048004984853, 1]], [1, [10.935524002492427, 1]], [1, [5.467762001246213, 1]], [1, [2.7338810006231067, 1]], [1, [1.3669405003115533, 1]], [1, [0.6834702501557767, 1]], [1, [0.34173512507788834, 1]], [2, [20.204544, 1]], [2, [10.102272, 1]], [2, [5.051136, 1]], [2, [2.525568, 1]], [2, [1.262784, 1]], [2, [0.631392, 1]], [2, [0.315696, 1]], [3, [6.964083722892481, 1]], [3, [3.4820418614462403, 1]], [3, [1.7410209307231201, 1]], [3, [0.8705104653615601, 1]], [4, [2.400374, 1]]]
  ETB auxbasis for O4  [[0, [23.675008, 1]], [0, [11.837504, 1]], [0, [5.918752, 1]], [0, [2.959376, 1]], [0, [1.479688, 1]], [0, [0.739844, 1]], [0, [0.369922, 1]], [1, [21.871048004984853, 1]], [1, [10.935524002492427, 1]], [1, [5.467762001246213, 1]], [1, [2.7338810006231067, 1]], [1, [1.3669405003115533, 1]], [1, [0.6834702501557767, 1]], [1, [0.34173512507788834, 1]], [2, [20.204544, 1]], [2, [10.102272, 1]], [2, [5.051136, 1]], [2, [2.525568, 1]], [2, [1.262784, 1]], [2, [0.631392, 1]], [2, [0.315696, 1]], [3, [6.964083722892481, 1]], [3, [3.4820418614462403, 1]], [3, [1.7410209307231201, 1]], [3, [0.8705104653615601, 1]], [4, [2.400374, 1]]]
  ETB auxbasis for Hg  [[0, [3.457216, 1]], [0, [1.728608, 1]], [0, [0.864304, 1]], [0, [0.432152, 1]], [0, [0.216076, 1]], [0, [0.108038, 1]], [1, [2.7665163000654815, 1]], [1, [1.3832581500327408, 1]], [1, [0.6916290750163704, 1]], [1, [0.3458145375081852, 1]], [1, [0.1729072687540926, 1]], [2, [2.7466100148772483, 1]], [2, [1.3733050074386242, 1]], [2, [0.6866525037193121, 1]], [2, [0.34332625185965604, 1]], [2, [0.17166312592982802, 1]], [3, [4.395757381708868, 1]], [3, [2.197878690854434, 1]], [3, [1.098939345427217, 1]], [3, [0.5494696727136085, 1]], [3, [0.27473483635680424, 1]], [4, [4.364128, 1]], [4, [2.182064, 1]], [4, [1.091032, 1]], [4, [0.545516, 1]], [4, [0.272758, 1]], [5, [4.20873341322731, 1]], [5, [2.104366706613655, 1]], [5, [1.0521833533068274, 1]], [5, [0.5260916766534137, 1]], [6, [2.029436, 1]], [6, [1.014718, 1]]]
  ETB auxbasis for Cu1  [[0, [10.5152, 1]], [0, [5.2576, 1]], [0, [2.6288, 1]], [0, [1.3144, 1]], [0, [0.6572, 1]], [0, [0.3286, 1]], [0, [0.1643, 1]], [0, [0.08215, 1]], [1, [19.346331756899033, 1]], [1, [9.673165878449517, 1]], [1, [4.836582939224758, 1]], [1, [2.418291469612379, 1]], [1, [1.2091457348061896, 1]], [1, [0.6045728674030948, 1]], [1, [0.3022864337015474, 1]], [1, [0.1511432168507737, 1]], [2, [14.418345973820992, 1]], [2, [7.209172986910496, 1]], [2, [3.604586493455248, 1]], [2, [1.802293246727624, 1]], [2, [0.901146623363812, 1]], [2, [0.450573311681906, 1]], [2, [0.225286655840953, 1]], [3, [13.263756495135155, 1]], [3, [6.6318782475675775, 1]], [3, [3.3159391237837887, 1]], [3, [1.6579695618918944, 1]], [3, [0.8289847809459472, 1]], [3, [0.4144923904729736, 1]], [4, [9.885152, 1]], [4, [4.942576, 1]], [4, [2.471288, 1]], [4, [1.235644, 1]], [4, [0.617822, 1]], [5, [9.208432508417488, 1]], [5, [4.604216254208744, 1]], [5, [2.302108127104372, 1]], [5, [1.151054063552186, 1]], [6, [8.57804, 1]], [6, [4.28902, 1]], [6, [2.14451, 1]]]
num shells = 1480, num cGTOs = 6928
Drop 0 primitive fitting functions
make aux basis, num shells = 1480, num cGTOs = 6928
auxcell.rcut 22.174586520270175
kmesh for bvk-cell = [1 1 1]


******** <class 'pyscf.pbc.df.rsdf_builder._RSGDFBuilder'> ********
mesh = [13 13 21] (3549 PWs)
ke_cutoff = 3.34719250091072
omega = 0.22254625128267627
exclude_d_aux = True
exclude_dd_block = True
j2c_eig_always = False
has_long_range = True
Set _RSGDFBuilder.direct_scf_tol to 4.16763e-13
rs_cell.nbas 336 nao 1024
No. smooth_bas in rs_cell 8
rs_cell.nbas 1480 nao 6928
No. smooth_bas in rs_cell 0
sup-mol nbas = 14945 cGTO = 44605 pGTO = 85550
sup-mol-ft nbas = 15432 cGTO = 45630 pGTO = 85483
    CPU time for int3c kernel initialization      9.45 sec, wall time      0.23 sec
    CPU time for pass1: real space int3c2e   4126.85 sec, wall time     79.44 sec
Set ft_ao cutoff to 3.64182e-10
Set 2c2e integrals precision 1e-12, mesh [15 15 23]
    CPU time for int2c2e    627.98 sec, wall time     12.14 sec
    CPU time for pass2: AFT int3c2e   6812.75 sec, wall time    169.66 sec
    CPU time for j3c  10940.69 sec, wall time    249.57 sec


******** <class 'pyscf.pbc.scf.addons.SmearingKRHF'> ********
method = SmearingKRHF
initial guess = minao
damping factor = 0
level_shift factor = 0
DIIS = <class 'pyscf.scf.diis.CDIIS'>
diis_start_cycle = 1
diis_space = 8
diis_damp = 0
SCF conv_tol = 1e-06
SCF conv_tol_grad = None
SCF max_cycles = 50
direct_scf = True
direct_scf_tol = 1e-13
chkfile to save SCF result = /central/scratch/yangjunjie/hg1212/47401555/tmp4axd696t
max_memory 409600 MB (current use 2403 MB)


******** PBC SCF flags ********
N kpts = 1
kpts = [[0. 0. 0.]]
Exchange divergence treatment (exxdiv) = None
Smearing method = fermi
DF object = <pyscf.pbc.df.df.GDF object at 0x7f08321877c0>
Set gradient conv threshold to 0.001
kmesh for bvk-cell = [1 1 1]


******** <class 'pyscf.pbc.df.rsdf_builder._RSNucBuilder'> ********
mesh = [25 25 39] (24375 PWs)
ke_cutoff = 12.440045319206014
omega = 0.4347490403914922
exclude_d_aux = False
exclude_dd_block = True
j2c_eig_always = False
has_long_range = True
Set _RSNucBuilder.direct_scf_tol to 4.16763e-13
rs_cell.nbas 344 nao 1040
No. smooth_bas in rs_cell 64
sup-mol nbas = 4201 cGTO = 11639 pGTO = 21100
sup-mol-ft nbas = 14149 cGTO = 43050 pGTO = 82142
    CPU time for int3c kernel initialization      2.17 sec, wall time      0.05 sec
Set ft_ao cutoff to 3.64182e-10
kmesh for bvk-cell = [1 1 1]
sup-mol nbas = 3663 cGTO = 9431 pGTO = 18118
    CPU time for int3c kernel initialization      2.75 sec, wall time      0.05 sec
    CPU time for int3c kernel initialization      0.77 sec, wall time      0.01 sec
    CPU time for get_pp   4165.84 sec, wall time     96.59 sec
get_k_kpts: build K from symm mo coeff
get_k_kpts: rank(dm) = 260 / 952
max_memory 406203 MB, blksize 240
    CPU time for get_k_kpts: make_kpt ki>=kj (0,*)   2416.40 sec, wall time     70.58 sec
    CPU time for buf1      86.96 sec, wall time      19.94 sec
    CPU time for ct11     769.61 sec, wall time      13.51 sec
    CPU time for ct12    1549.97 sec, wall time      36.19 sec
    CPU time for buf2       0.00 sec, wall time       0.00 sec
    CPU time for ct21       0.00 sec, wall time       0.00 sec
    CPU time for ct22       0.00 sec, wall time       0.00 sec
    CPU time for load       9.76 sec, wall time       0.92 sec
    CPU time for get_k_kpts   2423.37 sec, wall time     70.75 sec
max_memory 406188 MB, blksize 240
    CPU time for get_j pass 1     94.57 sec, wall time     27.99 sec
max_memory 406188 MB, blksize 240
    CPU time for get_j pass 2    239.61 sec, wall time     12.24 sec
    CPU time for get_j    337.71 sec, wall time     40.28 sec
    CPU time for vj and vk   2761.10 sec, wall time    111.04 sec
E1 = -2884.424926612769  E_coul = 1435.131454519915
init E= -2390.61336331688
    CPU time for initialize scf   6978.18 sec, wall time    208.57 sec
    Fermi level 0.652587  Sum mo_occ_kpts = 464.0  should equal nelec = 464
    sigma = 0.1  Optimized mu = 0.661307742484  entropy = 123.463050684
     k-point                  mo_energy/mo_occ
   0 ( 0.000  0.000  0.000)   [-3.019023 -3.018709 -3.014275 -3.013326 -3.010741 -3.010442 -3.008728
 -3.008318 -1.385278 -1.37633  -1.374492 -1.363167 -1.211225 -1.21115
 -1.210745 -1.210692 -1.206932 -1.206577 -1.206083 -1.205737 -1.202704
 -1.20261  -1.202141 -1.201969 -1.20141  -1.201267 -1.201125 -1.200887
 -1.200781 -1.19933  -1.196183 -1.194284 -1.192867 -1.192595 -1.190808
 -1.190418 -1.080203 -1.046951 -1.0106   -1.007772 -1.007743 -1.005449
 -0.994538 -0.991378 -0.893001 -0.887096 -0.87112  -0.864523 -0.858294
 -0.851951 -0.836439 -0.831038 -0.614572 -0.595174 -0.534915 -0.534694
 -0.514647 -0.511802 -0.507348 -0.507248 -0.481625 -0.48128  -0.481219
 -0.481091 -0.461388 -0.456676 -0.456524 -0.445054 -0.444936 -0.435881
 -0.435627 -0.424738 -0.417474 -0.413614 -0.412582 -0.412143 -0.408195
 -0.405819 -0.401627 -0.401431 -0.326847 -0.326797 -0.321005 -0.320947
 -0.312688 -0.311536 -0.303572 -0.302556 -0.293291 -0.293014 -0.29293
 -0.289266 -0.28913  -0.288997 -0.287988 -0.286597 -0.28393  -0.282378
 -0.279267 -0.278558 -0.277884 -0.275029 -0.274133 -0.269997 -0.21659
 -0.207339 -0.19688  -0.196461 -0.19258  -0.191141 -0.186152 -0.185934
 -0.181512 -0.181331 -0.178045 -0.17741  -0.177377 -0.172655 -0.1651
 -0.164622 -0.160216 -0.157813 -0.151176 -0.146453 -0.129563 -0.040219
 -0.037084  0.008239  0.008596  0.009689  0.017851  0.021439  0.029956
  0.031086  0.042741  0.043119  0.05428   0.054384  0.068798  0.068947
  0.073587  0.073833  0.08828   0.088614  0.109518  0.109858  0.113327
  0.113753  0.255903  0.260492  0.261315  0.283853  0.318264  0.324062
  0.341505  0.342694  0.344137  0.344661  0.349302  0.349472  0.350019
  0.353196  0.356194  0.358098  0.358576  0.36685   0.367022  0.372076
  0.374512  0.37555   0.383311  0.38354   0.383837  0.384088  0.385304
  0.385674  0.390984  0.391531  0.393257  0.393748  0.39685   0.396893
  0.397232  0.40014   0.401195  0.403633  0.404306  0.406072  0.411145
  0.411507  0.422821  0.423095  0.454964  0.455507  0.456295  0.462543
  0.463091  0.478569  0.482953  0.489351  0.494559  0.49702   0.50237
  0.503413  0.50448   0.505597  0.522935  0.52369   0.524224  0.531312
  0.531353  0.546096  0.550648  0.576189  0.576331  0.579245  0.580664
  0.580996  0.594396  0.594566  0.600885  0.601292  0.601494  0.607796
  0.607852  0.609289  0.611997  0.614123  0.615001  0.642119  0.651537
  0.652587  0.663439  0.664516  0.687935  0.688906  0.688937  0.689923
  0.690161  0.691261  0.693348  0.69441   0.698509  0.70162   0.702269
  0.70556   0.730047  0.730119  0.743866  0.763311  0.765269  0.773115
  0.776449  0.77661   0.784275  0.806425  0.806974  0.809047  0.809238
  0.814685  0.816595  0.818645  0.819924  0.840069  0.840695  0.858833
  0.858892  0.867153  0.86792   0.89225   0.893504  0.89541   0.895477
  0.898697  0.900996  0.910291  0.927485  0.927676  0.930784  0.950302
  0.959699  0.960686  0.961836  0.964082  0.964475  0.968695  0.97028
  0.977357  0.981127  0.999534  1.001662  1.002406  1.004275  1.005892
  1.008262  1.009206  1.009354  1.012422  1.012721  1.018937  1.023739
  1.024099  1.030515  1.030802  1.031008  1.034307  1.034324  1.034599
  1.047485  1.047883  1.052849  1.058642  1.058687  1.075894  1.079009
  1.079447  1.079744  1.080207  1.080967  1.090484  1.100782  1.116045
  1.116438  1.116766  1.117765  1.11807   1.13257   1.139082  1.14142
  1.151121  1.154722  1.156885  1.156991  1.157337  1.164812  1.166784
  1.168183  1.183717  1.183737  1.206803  1.225948  1.235052  1.235069
  1.240003  1.248561  1.253968  1.255763  1.256778  1.259034  1.273809
  1.278411  1.27943   1.27989   1.281861  1.281973  1.284556  1.285484
  1.291291  1.291357  1.294644  1.296833  1.30189   1.30935   1.318179
  1.319684  1.321293  1.326507  1.327561  1.328119  1.330024  1.330599
  1.336146  1.339586  1.340652  1.356892  1.356952  1.36385   1.373078
  1.39239   1.397819  1.399614  1.399696  1.404068  1.404108  1.41573
  1.418071  1.426664  1.429486  1.432373  1.433108  1.433205  1.433238
  1.435646  1.448991  1.454099  1.459612  1.461932  1.4626    1.462753
  1.465169  1.46857   1.470164  1.473191  1.47467   1.475771  1.476578
  1.482035  1.482075  1.483583  1.483609  1.483879  1.484701  1.485067
  1.493957  1.500691  1.501024  1.503911  1.5042    1.507176  1.511281
  1.515175  1.517683  1.522399  1.532317  1.536799  1.539283  1.543847
  1.545375  1.54543   1.547551  1.55547   1.555661  1.555923  1.558099
  1.565209  1.565722  1.567682  1.568165  1.569288  1.569413  1.570318
  1.57091   1.571232  1.571651  1.578441  1.578506  1.590982  1.616387
  1.616794  1.637761  1.640186  1.642193  1.643105  1.648567  1.648582
  1.66643   1.669093  1.670325  1.673181  1.675885  1.676989  1.684317
  1.688324  1.689442  1.700447  1.700543  1.700795  1.703138  1.707516
  1.708495  1.71491   1.714926  1.717848  1.720107  1.722861  1.750119
  1.750125  1.751411  1.753496  1.770684  1.788352  1.790129  1.793125
  1.806333  1.806359  1.809725  1.809831  1.831614  1.831889  1.832547
  1.844759  1.844791  1.847143  1.848679  1.852467  1.853942  1.865214
  1.872956  1.872993  1.881054  1.885368  1.910805  1.912413  1.918376
  1.918398  1.920356  1.920366  1.944121  1.94572   1.958832  1.960293
  1.960313  1.978333  1.982162  1.998     1.998028  2.03316   2.04998
  2.060502  2.06789   2.073977  2.092051  2.092059  2.102754  2.110647
  2.111318  2.11275   2.113029  2.113214  2.113484  2.125658  2.126391
  2.151724  2.151766  2.18473   2.186005  2.190323  2.190875  2.191979
  2.198389  2.198433  2.203453  2.204401  2.212459  2.2125    2.216805
  2.260967  2.289959  2.29885   2.299021  2.300392  2.301965  2.315462
  2.315727  2.355098  2.357807  2.358097  2.358252  2.359979  2.368883
  2.38503   2.387683  2.389169  2.390465  2.4134    2.421456  2.423753
  2.423849  2.424119  2.439085  2.439137  2.439308  2.442235  2.453221
  2.454632  2.479424  2.479822  2.489535  2.489633  2.492356  2.495129
  2.497326  2.505711  2.506905  2.50796   2.522834  2.524437  2.526097
  2.535299  2.53837   2.543974  2.549288  2.549319  2.553098  2.553165
  2.556763  2.558117  2.561844  2.565503  2.581065  2.581117  2.586747
  2.586828  2.587157  2.589881  2.59163   2.592128  2.611701  2.613098
  2.613714  2.614632  2.61521   2.615742  2.624077  2.645517  2.648959
  2.649427  2.64947   2.670928  2.67107   2.672589  2.673364  2.679299
  2.680041  2.688385  2.68848   2.690988  2.691018  2.692423  2.699571
  2.699958  2.707212  2.708833  2.70967   2.731456  2.732181  2.732192
  2.734804  2.757807  2.757943  2.760819  2.760887  2.766192  2.766428
  2.770598  2.775465  2.775522  2.782736  2.784518  2.785909  2.786624
  2.801865  2.801897  2.816332  2.816511  2.816673  2.819565  2.826074
  2.845505  2.849972  2.866761  2.867414  2.869689  2.871668  2.871711
  2.872148  2.901728  2.902541  2.920398  2.932582  2.933861  2.94008
  2.940626  2.954047  2.954094  2.959861  2.960422  2.964204  2.964352
  3.030503  3.032648  3.033805  3.036171  3.061299  3.077377  3.077467
  3.086321  3.086334  3.140628  3.141166  3.14904   3.149096  3.153516
  3.163736  3.183771  3.186686  3.202104  3.202592  3.203895  3.220915
  3.222684  3.234622  3.23538   3.236489  3.23679   3.240208  3.253562
  3.272844  3.305794  3.31369   3.315932  3.349334  3.363102  3.367111
  3.367208  3.372333  3.393104  3.396914  3.403175  3.408645  3.424003
  3.429655  3.429671  3.430623  3.445233  3.47877   3.478798  3.479047
  3.479193  3.480821  3.490558  3.491112  3.506115  3.506125  3.519124
  3.519132  3.522109  3.522393  3.528115  3.528444  3.53671   3.540519
  3.540827  3.544373  3.544635  3.544941  3.567659  3.614343  3.643519
  3.644629  3.649714  3.650399  3.650883  3.654121  3.654405  3.664242
  3.665416  3.666222  3.68218   3.693555  3.695546  3.69845   3.701152
  3.725088  3.725225  3.726725  3.727518  3.752472  3.752538  3.752891
  3.755916  3.764762  3.764981  3.765988  3.776589  3.780203  3.780815
  3.79957   3.79963   3.806653  3.806907  3.806965  3.809632  3.810774
  3.813938  3.817447  3.817574  3.836211  3.840394  3.840884  3.843434
  3.843551  3.860644  3.875857  3.875923  3.888569  3.889022  3.89005
  3.890389  3.897593  3.897921  3.898914  3.89978   3.899922  3.902971
  3.903384  3.909023  3.909293  3.913073  3.91373   3.919591  3.919717
  3.92478   3.925437  3.926041  3.926766  3.940857  3.941248  3.945084
  3.948586  3.948665  3.954275  3.954335  3.985488  3.985707  4.007519
  4.014011  4.020115  4.023698  4.023988  4.024088  4.024491  4.028386
  4.045107  4.06333   4.063629  4.076463  4.076473  4.082352  4.082736
  4.085503  4.109251  4.114195  4.207155  4.207276  4.227414  4.228218
  4.263788  4.264009  4.358624  4.364442  4.38653   4.387222  4.402757
  4.436731  4.438224  4.469136  4.481424  4.502944  4.503631  4.717352
  4.717386  4.735774  4.736357  4.748254  4.749368  4.753252  4.80826
  4.835579  4.88129   5.153584  5.154392  5.158488  5.164222  5.231263
  5.236139  7.172754  7.173498  7.177893  7.179599  7.179963  7.18594
  7.186602  7.186655  7.186832  7.189044  7.193637  7.194631  7.194795
  7.197602  7.205277  7.209052  7.209465  7.214245  7.214328  7.221
  7.222166  7.222962  7.226352  7.226588  7.226627  7.229391  7.229439
  7.229497  7.22978   7.231483  7.231871  7.233392  7.234622  7.246494
  7.246871  7.292538  7.298072  7.390098  7.426776  7.432189  7.4464
  7.446453  7.481842  7.481902  7.531674  7.531721  7.542892  7.54295
  7.624138  7.624249  7.656773  7.65689   7.662229  7.662275  7.748876
  7.748926  9.54957   9.55457   9.64421   9.693693  9.695799  9.699447
  9.704407  9.706952  9.713946  9.730478  9.745484  9.84107  15.586027
 15.591748 15.741112 16.515053 16.555861 16.561922 16.735432 16.754422]
                              [2.       2.       2.       2.       2.       2.       2.       2.
 2.       2.       2.       2.       2.       2.       2.       2.
 2.       2.       2.       2.       2.       2.       2.       2.
 2.       2.       2.       2.       2.       2.       2.       2.
 2.       2.       2.       2.       2.       2.       2.       2.
 2.       2.       2.       2.       2.       2.       2.       2.
 1.999999 1.999999 1.999999 1.999999 1.999994 1.999993 1.999987 1.999987
 1.999984 1.999984 1.999983 1.999983 1.999978 1.999978 1.999978 1.999978
 1.999973 1.999972 1.999972 1.999969 1.999969 1.999966 1.999966 1.999962
 1.999959 1.999957 1.999957 1.999956 1.999955 1.999954 1.999952 1.999952
 1.999898 1.999898 1.999892 1.999892 1.999882 1.999881 1.999871 1.99987
 1.999857 1.999857 1.999857 1.999851 1.999851 1.999851 1.999849 1.999847
 1.999843 1.999841 1.999836 1.999834 1.999833 1.999828 1.999827 1.99982
 1.999692 1.999662 1.999625 1.999624 1.999609 1.999603 1.999583 1.999582
 1.999563 1.999562 1.999547 1.999545 1.999544 1.999522 1.999485 1.999482
 1.999459 1.999446 1.999408 1.999379 1.999265 1.998205 1.998148 1.997088
 1.997078 1.997046 1.996795 1.996678 1.996383 1.996342 1.995891 1.995875
 1.99539  1.995385 1.994671 1.994663 1.99441  1.994397 1.993529 1.993507
 1.992004 1.991976 1.991694 1.991659 1.965888 1.964315 1.964025 1.955135
 1.937285 1.933665 1.92152  1.920618 1.919511 1.919106 1.915425 1.915287
 1.914842 1.912214 1.909663 1.908007 1.907586 1.900013 1.899849 1.894931
 1.892479 1.891418 1.883167 1.882915 1.882588 1.882309 1.880956 1.880541
 1.874435 1.87379  1.871733 1.871142 1.867352 1.867299 1.866878 1.863219
 1.861868 1.858701 1.857814 1.855464 1.848512 1.848003 1.831332 1.830908
 1.774597 1.773508 1.77192  1.758988 1.757824 1.722901 1.712268 1.696147
 1.682482 1.675852 1.661056 1.658112 1.655077 1.651874 1.599178 1.596754
 1.595031 1.571656 1.571518 1.519795 1.502989 1.401632 1.401036 1.388741
 1.382698 1.381284 1.322612 1.321848 1.293247 1.291385 1.290459 1.26135
 1.261092 1.254381 1.241678 1.231641 1.227481 1.09565  1.048814 1.043578
 0.989343 0.983959 0.867643 0.862878 0.862724 0.857892 0.856726 0.851342
 0.841156 0.835982 0.816112 0.801123 0.79801  0.782278 0.669227 0.668905
 0.609161 0.53004  0.522448 0.492739 0.480461 0.479876 0.452479 0.379642
 0.377955 0.371642 0.371066 0.354884 0.349345 0.343471 0.33985  0.286731
 0.285197 0.243652 0.243526 0.226403 0.224867 0.180691 0.178641 0.175564
 0.175457 0.170371 0.166822 0.153148 0.130535 0.130302 0.126566 0.105306
 0.096316 0.095415 0.094376 0.092376 0.092031 0.088395 0.087067 0.08136
 0.078467 0.065709 0.06437  0.063908 0.062762 0.061786 0.060383 0.059832
 0.059746 0.057993 0.057825 0.054435 0.05195  0.051768 0.048629 0.048493
 0.048395 0.046862 0.046854 0.046728 0.041195 0.041035 0.039086 0.036926
 0.03691  0.031166 0.030225 0.030095 0.030007 0.02987  0.029647 0.026992
 0.024383 0.020968 0.020887 0.020819 0.020614 0.020552 0.017802 0.01669
 0.016307 0.01481  0.01429  0.013987 0.013972 0.013924 0.012928 0.012677
 0.012502 0.010713 0.010711 0.008514 0.007036 0.006425 0.006424 0.006116
 0.005616 0.005321 0.005226 0.005174 0.005059 0.004365 0.004169 0.004127
 0.004108 0.004028 0.004024 0.003921 0.003885 0.003666 0.003664 0.003546
 0.003469 0.003298 0.003062 0.002803 0.002761 0.002717 0.00258  0.002553
 0.002538 0.002491 0.002476 0.002343 0.002264 0.00224  0.001904 0.001903
 0.001776 0.00162  0.001336 0.001265 0.001243 0.001242 0.001189 0.001188
 0.001058 0.001033 0.000948 0.000922 0.000896 0.000889 0.000888 0.000888
 0.000867 0.000759 0.000721 0.000682 0.000667 0.000662 0.000661 0.000645
 0.000624 0.000614 0.000596 0.000587 0.00058  0.000576 0.000545 0.000545
 0.000537 0.000537 0.000535 0.000531 0.000529 0.000484 0.000452 0.000451
 0.000438 0.000437 0.000424 0.000407 0.000391 0.000382 0.000364 0.00033
 0.000315 0.000308 0.000294 0.000289 0.000289 0.000283 0.000262 0.000261
 0.00026  0.000255 0.000237 0.000236 0.000232 0.00023  0.000228 0.000228
 0.000226 0.000224 0.000223 0.000223 0.000208 0.000208 0.000183 0.000142
 0.000142 0.000115 0.000112 0.00011  0.000109 0.000103 0.000103 0.000086
 0.000084 0.000083 0.000081 0.000078 0.000078 0.000072 0.000069 0.000069
 0.000061 0.000061 0.000061 0.00006  0.000057 0.000057 0.000053 0.000053
 0.000052 0.00005  0.000049 0.000037 0.000037 0.000037 0.000036 0.00003
 0.000025 0.000025 0.000024 0.000021 0.000021 0.000021 0.000021 0.000017
 0.000016 0.000016 0.000014 0.000014 0.000014 0.000014 0.000013 0.000013
 0.000012 0.000011 0.000011 0.00001  0.00001  0.000007 0.000007 0.000007
 0.000007 0.000007 0.000007 0.000005 0.000005 0.000005 0.000005 0.000005
 0.000004 0.000004 0.000003 0.000003 0.000002 0.000002 0.000002 0.000002
 0.000001 0.000001 0.000001 0.000001 0.000001 0.000001 0.000001 0.000001
 0.000001 0.000001 0.000001 0.000001 0.000001 0.000001 0.       0.
 0.       0.       0.       0.       0.       0.       0.       0.
 0.       0.       0.       0.       0.       0.       0.       0.
 0.       0.       0.       0.       0.       0.       0.       0.
 0.       0.       0.       0.       0.       0.       0.       0.
 0.       0.       0.       0.       0.       0.       0.       0.
 0.       0.       0.       0.       0.       0.       0.       0.
 0.       0.       0.       0.       0.       0.       0.       0.
 0.       0.       0.       0.       0.       0.       0.       0.
 0.       0.       0.       0.       0.       0.       0.       0.
 0.       0.       0.       0.       0.       0.       0.       0.
 0.       0.       0.       0.       0.       0.       0.       0.
 0.       0.       0.       0.       0.       0.       0.       0.
 0.       0.       0.       0.       0.       0.       0.       0.
 0.       0.       0.       0.       0.       0.       0.       0.
 0.       0.       0.       0.       0.       0.       0.       0.
 0.       0.       0.       0.       0.       0.       0.       0.
 0.       0.       0.       0.       0.       0.       0.       0.
 0.       0.       0.       0.       0.       0.       0.       0.
 0.       0.       0.       0.       0.       0.       0.       0.
 0.       0.       0.       0.       0.       0.       0.       0.
 0.       0.       0.       0.       0.       0.       0.       0.
 0.       0.       0.       0.       0.       0.       0.       0.
 0.       0.       0.       0.       0.       0.       0.       0.
 0.       0.       0.       0.       0.       0.       0.       0.
 0.       0.       0.       0.       0.       0.       0.       0.
 0.       0.       0.       0.       0.       0.       0.       0.
 0.       0.       0.       0.       0.       0.       0.       0.
 0.       0.       0.       0.       0.       0.       0.       0.
 0.       0.       0.       0.       0.       0.       0.       0.
 0.       0.       0.       0.       0.       0.       0.       0.
 0.       0.       0.       0.       0.       0.       0.       0.
 0.       0.       0.       0.       0.       0.       0.       0.
 0.       0.       0.       0.       0.       0.       0.       0.
 0.       0.       0.       0.       0.       0.       0.       0.
 0.       0.       0.       0.       0.       0.       0.       0.
 0.       0.       0.       0.       0.       0.       0.       0.
 0.       0.       0.       0.       0.       0.       0.       0.
 0.       0.       0.       0.       0.       0.       0.       0.
 0.       0.       0.       0.       0.       0.       0.       0.
 0.       0.       0.       0.       0.       0.       0.       0.
 0.       0.       0.       0.       0.       0.       0.       0.
 0.       0.       0.       0.       0.       0.       0.       0.
 0.       0.       0.       0.       0.       0.       0.       0.
 0.       0.       0.       0.       0.       0.       0.       0.
 0.       0.       0.       0.       0.       0.       0.       0.
 0.       0.       0.       0.       0.       0.       0.       0.
 0.       0.       0.       0.       0.       0.       0.       0.
 0.       0.       0.       0.       0.       0.       0.       0.
 0.       0.       0.       0.       0.       0.       0.       0.
 0.       0.       0.       0.       0.       0.       0.       0.
 0.       0.       0.       0.       0.       0.       0.       0.
 0.       0.       0.       0.       0.       0.       0.       0.      ]
get_k_kpts: build K from symm mo coeff
get_k_kpts: rank(dm) = 599 / 952
max_memory 406159 MB, blksize 240
    CPU time for get_k_kpts: make_kpt ki>=kj (0,*)   6195.60 sec, wall time    131.74 sec
    CPU time for buf1      85.50 sec, wall time      18.93 sec
    CPU time for ct11    2030.74 sec, wall time      33.67 sec
    CPU time for ct12    4069.24 sec, wall time      78.04 sec
    CPU time for buf2       0.00 sec, wall time       0.00 sec
    CPU time for ct21       0.00 sec, wall time       0.00 sec
    CPU time for ct22       0.00 sec, wall time       0.00 sec
    CPU time for load      10.01 sec, wall time       1.07 sec
    CPU time for get_k_kpts   6195.91 sec, wall time    131.76 sec
max_memory 406138 MB, blksize 240
    CPU time for get_j pass 1     93.50 sec, wall time     26.63 sec
max_memory 406138 MB, blksize 240
    CPU time for get_j pass 2    240.06 sec, wall time     12.02 sec
    CPU time for get_j    335.92 sec, wall time     38.69 sec
    CPU time for vj and vk   6531.86 sec, wall time    170.45 sec
E1 = -1109.1224818444798  E_coul = 204.75464764261454
    Total E(T) = -1845.68772542589  Free energy = -1858.03403049432  E0 = -1851.8608779601
cycle= 1 E= -1845.68772542589  delta_E=  545  |g|= 79.6  |ddm|= 1.47e+03
    CPU time for cycle= 1   6544.58 sec, wall time    170.65 sec
    Fermi level -3.90635  Sum mo_occ_kpts = 464.0  should equal nelec = 464
    sigma = 0.1  Optimized mu = -3.88634395947  entropy = 53.9457398971
     k-point                  mo_energy/mo_occ
   0 ( 0.000  0.000  0.000)   [-16.052166 -16.040206 -16.038462 -16.024395 -16.02013  -16.010805
 -16.00961  -15.994919 -13.945561 -13.945295 -13.938288 -13.938058
 -13.937867 -13.937602 -13.921068 -13.920869 -13.915875 -13.915593
 -13.90977  -13.909478 -13.909077 -13.908762 -13.89496  -13.894753
 -13.828946 -13.821799 -13.821099 -13.803549 -13.798054 -13.792061
 -13.791112 -13.77652  -10.154891 -10.131911 -10.128115 -10.125654
 -10.103432 -10.102978 -10.09955  -10.08507  -10.080435 -10.075922
 -10.073145 -10.058434 -10.054205 -10.051237 -10.042208 -10.040564
 -10.040372 -10.034289 -10.031677 -10.031378 -10.028356 -10.028057
 -10.026656 -10.025796 -10.024624 -10.012986 -10.012803 -10.00888
 -10.006539 -10.0064   -10.00358   -9.998705  -9.998353  -9.99657
  -9.996059  -9.995741  -9.99514   -9.983566  -9.983377  -9.980807
  -6.982602  -6.943963  -6.942616  -6.928592  -6.820598  -6.734629
  -6.717527  -6.71314   -6.623641  -6.623294  -6.601991  -6.564741
  -6.152324  -6.152057  -6.114895  -6.114723  -6.094519  -6.094065
  -6.082956  -6.082568  -6.039335  -6.038168  -5.97032   -5.961537
  -5.948939  -5.948698  -5.933773  -5.933502  -5.9262    -5.925544
  -5.911322  -5.898133  -5.896519  -5.894018  -5.85958   -5.858553
  -5.847168  -5.846933  -5.794564  -5.793094  -5.731749  -5.700365
  -5.678677  -5.677558  -5.640046  -5.619631  -5.616608  -5.581174
  -5.382261  -5.381571  -5.353843  -5.353663  -5.313866  -5.30353
  -5.302577  -5.287756  -5.287631  -5.279512  -5.254493  -5.251463
  -5.165781  -5.140624  -5.107737  -5.107344  -5.096317  -5.093697
  -5.055557  -5.051739  -5.05131   -5.033032  -5.029119  -4.954598
  -4.950817  -4.949646  -4.946932  -4.942759  -4.931089  -4.929118
  -4.919113  -4.879937  -4.87958   -4.86251   -4.821134  -4.819347
  -4.818591  -4.807834  -4.796728  -4.791194  -4.73752   -4.640214
  -4.640101  -4.598007  -4.597672  -4.582465  -4.575975  -4.531065
  -4.52691   -4.526574  -4.518285  -4.517994  -4.517101  -4.510133
  -4.509682  -4.505523  -4.504843  -4.498101  -4.497372  -4.460018
  -4.457247  -4.456899  -4.439114  -4.437609  -4.419283  -4.418755
  -4.410006  -4.407378  -4.396988  -4.396711  -4.377243  -4.370446
  -4.369699  -4.367762  -4.344687  -4.308961  -4.305608  -4.287235
  -4.277154  -4.27001   -4.228764  -4.227698  -4.222523  -4.218636
  -4.20969   -4.207271  -4.190687  -4.190115  -4.186256  -4.129475
  -4.128734  -4.1129    -4.100296  -4.100008  -4.08588   -4.084354
  -4.048122  -4.044148  -4.035291  -4.030328  -4.024329  -4.022244
  -3.999164  -3.990813  -3.988976  -3.975566  -3.958188  -3.957877
  -3.943111  -3.942674  -3.939237  -3.90635   -3.905521  -3.899438
  -3.897403  -3.874785  -3.81866   -3.818064  -3.782477  -3.7714
  -3.755106  -3.738637  -3.703778  -3.700779  -3.696192  -3.695463
  -3.694202  -3.693877  -3.692851  -3.681748  -3.681237  -3.680943
  -3.670719  -3.668938  -3.650999  -3.647632  -3.609971  -3.609899
  -3.552359  -3.525046  -3.524507  -3.514321  -3.490186  -3.488459
  -3.46559   -3.465387  -3.39983   -3.398383  -3.395847  -3.395375
  -3.365483  -3.364782  -3.26869   -3.231595  -3.228707  -3.22861
  -3.21492   -3.214888  -3.181525  -3.178953  -3.165717  -3.161596
  -3.161557  -3.153242  -3.152665  -3.121216  -3.120662  -3.113768
  -3.113578  -3.105841  -3.10553   -3.093171  -3.092719  -3.088424
  -3.086382  -3.085408  -3.085202  -3.069235  -2.998597  -2.987832
  -2.987656  -2.979781  -2.975922  -2.948319  -2.945945  -2.940191
  -2.9389    -2.93351   -2.929442  -2.923753  -2.921489  -2.91953
  -2.918809  -2.905615  -2.888194  -2.880444  -2.879316  -2.863955
  -2.85867   -2.857934  -2.852298  -2.851384  -2.839438  -2.835356
  -2.831048  -2.790256  -2.787486  -2.787173  -2.779284  -2.779011
  -2.775206  -2.774511  -2.764608  -2.761635  -2.761067  -2.726229
  -2.725723  -2.719229  -2.71876   -2.69917   -2.692203  -2.69207
  -2.576901  -2.576408  -2.566494  -2.558605  -2.54898   -2.496658
  -2.399669  -2.399508  -2.368241  -2.365932  -2.329221  -2.327918
  -2.327254  -2.315987  -2.295667  -2.279542  -2.279348  -2.227868
  -2.227605  -2.227388  -2.224138  -2.127308  -2.125121  -2.116089
  -2.103727  -2.101611  -2.076068  -2.07563   -2.03662   -2.027288
  -1.9737    -1.949598  -1.948678  -1.919395  -1.915933  -1.870364
  -1.870207  -1.869431  -1.851821  -1.84838   -1.848277  -1.844956
  -1.843638  -1.826634  -1.824159  -1.821294  -1.794107  -1.793996
  -1.780108  -1.779809  -1.77041   -1.770044  -1.731341  -1.730983
  -1.705608  -1.684319  -1.602202  -1.504061  -1.501468  -1.459466
  -1.457634  -1.417805  -1.416669  -1.4062    -1.404468  -1.376736
  -1.376599  -1.348357  -1.306083  -1.304755  -1.287023  -1.270004
  -1.268339  -1.238549  -1.218775  -1.217868  -1.209678  -1.152492
  -1.151333  -1.136068  -1.129272  -1.125259  -1.108086  -1.106984
  -1.052727  -1.014882  -0.972146  -0.96933   -0.967639  -0.966391
  -0.965429  -0.959987  -0.957686  -0.956539  -0.953893  -0.950116
  -0.943644  -0.925946  -0.92437   -0.923691  -0.92355   -0.91833
  -0.91663   -0.903717  -0.895198  -0.893298  -0.89099   -0.874536
  -0.873085  -0.872641  -0.868757  -0.867423  -0.851929  -0.851553
  -0.846965  -0.846119  -0.842927  -0.83539   -0.834649  -0.831952
  -0.816943  -0.816705  -0.812595  -0.811509  -0.810242  -0.80524
  -0.803865  -0.794187  -0.789158  -0.780875  -0.777335  -0.753567
  -0.752752  -0.752085  -0.740999  -0.739296  -0.73247   -0.725003
  -0.714339  -0.713166  -0.709004  -0.679735  -0.679531  -0.634995
  -0.626686  -0.625469  -0.602154  -0.590558  -0.589345  -0.58888
  -0.55781   -0.490728  -0.448324  -0.445168  -0.422926  -0.413356
  -0.407112  -0.406504  -0.347087  -0.345162  -0.335247  -0.330911
  -0.306222  -0.288131  -0.286883  -0.272798  -0.215923  -0.215522
  -0.206106  -0.198676  -0.177278  -0.176254  -0.171283  -0.170163
  -0.160547  -0.088006  -0.068049  -0.06608    0.016421   0.018056
   0.126805   0.247167   0.249265   0.249336   0.250361   0.382951
   0.449169   0.449238   0.519581   0.520619   0.583817   0.583872
   0.70577    0.706866   0.796545   0.796668   0.825012   0.825902
   0.850831   0.851159   0.950028   0.950815   1.014513   1.015203
   1.103436   1.109496   1.13847    1.166378   1.182968   1.187045
   1.200675   1.238318   1.245474   1.251459   1.323978   1.359452
   1.366222   1.49801    1.51868    1.533517   1.567606   1.586516
   1.591542   1.59156    1.592121   1.637426   1.723096   1.724848
   1.793672   1.794142   1.799395   1.810946   1.812629   1.844807
   1.844903   1.876094   1.87655    1.87841    1.882798   1.885307
   2.271947   2.279836   2.306415   2.367531   2.398547   2.445068
   2.446726   2.448815   2.469234   2.503078   2.52362    2.534263
   2.548772   2.561064   2.567224   2.569735   2.638147   2.646764
   2.653978   2.663568   2.704278   2.715      2.818422   2.825859
   2.869213   2.875327   2.90903    2.917124   2.926443   2.927699
   2.981149   2.985476   3.012138   3.012222   3.042668   3.044848
   3.049743   3.052018   3.07495    3.289902   3.290376   3.312424
   3.318196   3.319717   3.327621   3.327759   3.381532   3.423223
   3.423373   3.460274   3.461348   3.609362   3.610086   3.771984
   3.773339   3.778924   3.815478   3.815677   3.835623   3.847871
   3.884375   3.902155   3.903292   3.917407   3.939991   3.940112
   3.942601   3.947374   3.960832   3.967972   3.984477   4.046865
   4.073826   4.074433   4.082311   4.083194   4.090099   4.090243
   4.103239   4.136977   4.137914   4.142868   4.143801   4.14501
   4.147631   4.150762   4.152995   4.205663   4.206512   4.227041
   4.231155   4.231761   4.232173   4.320113   4.322435   4.343018
   4.352232   4.361622   4.370203   4.382541   4.385388   4.396727
   4.426917   4.441796   4.490184   4.493089   4.520411   4.719726
   4.725596   4.75619    4.761605   4.768242   4.772967   4.774331
   4.816659   4.816799   4.840659   4.844266   4.941463   4.942546
   4.98567    4.988687   4.996356   5.008662   5.054639   5.054711
   5.059154   5.070829   5.142864   5.142889   5.281444   5.313746
   5.393819   5.489492   5.489543   5.644965   5.653841   5.711921
   5.711933   5.713655   5.755101   5.809223   5.8223     5.822369
   5.860442   5.872667   5.873306   5.914245   5.916828   6.025001
   6.026304   6.120786   6.125387   6.147767   6.151486   6.172071
   6.172198   6.175257   6.177565   6.188847   6.188921   6.199939
   6.201885   6.233468   6.233516   6.263171   6.264115   6.271095
   6.272367   6.277816   6.344231   6.345212   6.346873   6.351485
   6.352632   6.365888   6.377519   6.398521   6.41257    6.418871
   6.422505   6.425103   6.454557   6.458021   6.47336    6.474516
   6.483334   6.487537   6.48818    6.527266   6.530335   6.536489
   6.539899   6.542647   6.546185   6.551484   6.57331    6.573977
   6.576687   6.577271   6.59317    6.594296   6.609019   6.609979
   6.610318   6.673581   6.719816   6.732889   6.739347   6.740018
   6.754527   6.754615   6.789213   6.789438   6.821538   6.839479
   6.840272   6.84029    6.852114   6.853871   6.85636    6.909454
   6.937772   6.985702   6.987053   7.004411   7.006658   7.011241
   7.013054   7.126738   7.12759    7.16199    7.170218   7.229428
   7.312793   7.31764    7.405333   7.416212   7.417589   7.435402
   7.495593   7.50105    7.506186   7.544073   7.547659   7.547764
   7.549803   7.550493   7.571956   7.599212   7.599345   7.603571
   7.61456    7.615055   7.645248   7.645625   7.647231   7.648365
   7.650907   7.65984    7.669084   7.670483   7.67053    7.68915
   7.699681   7.713975   7.718237   7.719995   7.732252   7.744248
   7.768979   7.782731   7.801028   7.801083   7.807034   7.815926
   7.823778   7.824252   7.855363   7.855985   7.877318   7.879648
   7.879706   7.963405   7.964019   7.968142   8.100636   8.101942
   8.150616   8.208403   8.217482   8.227798   8.227822   8.291483
   8.330369   8.334557   8.371596   8.698055   8.698981   8.750738
   8.75091    8.795018   8.795251   8.827308   8.827891   8.892239
   8.968384   8.969799   9.053362   9.070118   9.072237   9.110056
   9.111941   9.131084   9.145976   9.170647   9.198607   9.201979
   9.222247   9.228421   9.228873   9.230905   9.237715   9.248267
   9.248458   9.258317   9.258555   9.264585   9.265253   9.269709
   9.282236   9.282485   9.290967   9.291707   9.302165   9.302276
   9.333614   9.333835   9.346929   9.364021   9.364113   9.440388
   9.823017   9.823797   9.894175   9.996449  10.495637  10.505666
  10.505717  10.57634   10.576955  10.577328  10.587267  10.613243
  10.613735  10.692809  10.720962  10.721045  11.849906  11.87325
  11.949821  11.953894  12.007624  12.025297  12.04112   12.051207
  12.086751  12.097308  12.135254  12.140612]
                              [2.       2.       2.       2.       2.       2.       2.       2.
 2.       2.       2.       2.       2.       2.       2.       2.
 2.       2.       2.       2.       2.       2.       2.       2.
 2.       2.       2.       2.       2.       2.       2.       2.
 2.       2.       2.       2.       2.       2.       2.       2.
 2.       2.       2.       2.       2.       2.       2.       2.
 2.       2.       2.       2.       2.       2.       2.       2.
 2.       2.       2.       2.       2.       2.       2.       2.
 2.       2.       2.       2.       2.       2.       2.       2.
 2.       2.       2.       2.       2.       2.       2.       2.
 2.       2.       2.       2.       2.       2.       2.       2.
 2.       2.       2.       2.       2.       2.       2.       2.
 2.       2.       2.       2.       2.       2.       2.       2.
 2.       2.       2.       2.       2.       2.       2.       2.
 2.       2.       2.       2.       2.       2.       2.       2.
 1.999999 1.999999 1.999999 1.999999 1.999999 1.999999 1.999999 1.999998
 1.999998 1.999998 1.999998 1.999998 1.999994 1.999993 1.99999  1.99999
 1.999989 1.999989 1.999983 1.999983 1.999983 1.999979 1.999978 1.999954
 1.999952 1.999952 1.99995  1.999948 1.999942 1.999941 1.999935 1.999903
 1.999903 1.999885 1.999826 1.999823 1.999821 1.999801 1.999778 1.999765
 1.999598 1.998936 1.998935 1.998378 1.998373 1.998106 1.997979 1.996835
 1.996701 1.99669  1.996404 1.996394 1.996362 1.9961   1.996082 1.995916
 1.995888 1.995602 1.99557  1.99357  1.99339  1.993367 1.992081 1.991962
 1.990353 1.990302 1.98942  1.98914  1.987958 1.987925 1.985348 1.984326
 1.984209 1.983903 1.979767 1.971204 1.970237 1.964341 1.960633 1.95778
 1.936905 1.93625  1.932978 1.930413 1.924148 1.922363 1.908996 1.908498
 1.905068 1.838367 1.837263 1.811968 1.789371 1.788827 1.760618 1.757384
 1.668979 1.657854 1.631998 1.616861 1.597933 1.591195 1.511012 1.47951
 1.472404 1.418695 1.344528 1.343156 1.276451 1.274434 1.258468 1.099697
 1.095593 1.065379 1.055237 0.942269 0.673934 0.671271 0.522813 0.481183
 0.424178 0.371742 0.277512 0.270422 0.259873 0.258229 0.255407 0.254682
 0.252413 0.228922 0.227888 0.227295 0.207497 0.204208 0.173585 0.168321
 0.118632 0.118552 0.068458 0.052526 0.052251 0.047311 0.037355 0.036727
 0.029329 0.029271 0.015304 0.015085 0.01471  0.014642 0.010879 0.010803
 0.004147 0.002863 0.002782 0.002779 0.002424 0.002423 0.001736 0.001692
 0.001483 0.001423 0.001422 0.001309 0.001301 0.00095  0.000945 0.000882
 0.000881 0.000815 0.000812 0.000718 0.000715 0.000685 0.000671 0.000664
 0.000663 0.000565 0.000279 0.00025  0.00025  0.000231 0.000222 0.000169
 0.000165 0.000156 0.000154 0.000146 0.00014  0.000132 0.000129 0.000127
 0.000126 0.00011  0.000092 0.000086 0.000085 0.000073 0.000069 0.000068
 0.000065 0.000064 0.000057 0.000055 0.000052 0.000035 0.000034 0.000034
 0.000031 0.000031 0.00003  0.00003  0.000027 0.000026 0.000026 0.000018
 0.000018 0.000017 0.000017 0.000014 0.000013 0.000013 0.000004 0.000004
 0.000004 0.000003 0.000003 0.000002 0.000001 0.000001 0.000001 0.
 0.       0.       0.       0.       0.       0.       0.       0.
 0.       0.       0.       0.       0.       0.       0.       0.
 0.       0.       0.       0.       0.       0.       0.       0.
 0.       0.       0.       0.       0.       0.       0.       0.
 0.       0.       0.       0.       0.       0.       0.       0.
 0.       0.       0.       0.       0.       0.       0.       0.
 0.       0.       0.       0.       0.       0.       0.       0.
 0.       0.       0.       0.       0.       0.       0.       0.
 0.       0.       0.       0.       0.       0.       0.       0.
 0.       0.       0.       0.       0.       0.       0.       0.
 0.       0.       0.       0.       0.       0.       0.       0.
 0.       0.       0.       0.       0.       0.       0.       0.
 0.       0.       0.       0.       0.       0.       0.       0.
 0.       0.       0.       0.       0.       0.       0.       0.
 0.       0.       0.       0.       0.       0.       0.       0.
 0.       0.       0.       0.       0.       0.       0.       0.
 0.       0.       0.       0.       0.       0.       0.       0.
 0.       0.       0.       0.       0.       0.       0.       0.
 0.       0.       0.       0.       0.       0.       0.       0.
 0.       0.       0.       0.       0.       0.       0.       0.
 0.       0.       0.       0.       0.       0.       0.       0.
 0.       0.       0.       0.       0.       0.       0.       0.
 0.       0.       0.       0.       0.       0.       0.       0.
 0.       0.       0.       0.       0.       0.       0.       0.
 0.       0.       0.       0.       0.       0.       0.       0.
 0.       0.       0.       0.       0.       0.       0.       0.
 0.       0.       0.       0.       0.       0.       0.       0.
 0.       0.       0.       0.       0.       0.       0.       0.
 0.       0.       0.       0.       0.       0.       0.       0.
 0.       0.       0.       0.       0.       0.       0.       0.
 0.       0.       0.       0.       0.       0.       0.       0.
 0.       0.       0.       0.       0.       0.       0.       0.
 0.       0.       0.       0.       0.       0.       0.       0.
 0.       0.       0.       0.       0.       0.       0.       0.
 0.       0.       0.       0.       0.       0.       0.       0.
 0.       0.       0.       0.       0.       0.       0.       0.
 0.       0.       0.       0.       0.       0.       0.       0.
 0.       0.       0.       0.       0.       0.       0.       0.
 0.       0.       0.       0.       0.       0.       0.       0.
 0.       0.       0.       0.       0.       0.       0.       0.
 0.       0.       0.       0.       0.       0.       0.       0.
 0.       0.       0.       0.       0.       0.       0.       0.
 0.       0.       0.       0.       0.       0.       0.       0.
 0.       0.       0.       0.       0.       0.       0.       0.
 0.       0.       0.       0.       0.       0.       0.       0.
 0.       0.       0.       0.       0.       0.       0.       0.
 0.       0.       0.       0.       0.       0.       0.       0.
 0.       0.       0.       0.       0.       0.       0.       0.
 0.       0.       0.       0.       0.       0.       0.       0.
 0.       0.       0.       0.       0.       0.       0.       0.
 0.       0.       0.       0.       0.       0.       0.       0.
 0.       0.       0.       0.       0.       0.       0.       0.
 0.       0.       0.       0.       0.       0.       0.       0.
 0.       0.       0.       0.       0.       0.       0.       0.
 0.       0.       0.       0.       0.       0.       0.       0.
 0.       0.       0.       0.       0.       0.       0.       0.
 0.       0.       0.       0.       0.       0.       0.       0.
 0.       0.       0.       0.       0.       0.       0.       0.
 0.       0.       0.       0.       0.       0.       0.       0.
 0.       0.       0.       0.       0.       0.       0.       0.
 0.       0.       0.       0.       0.       0.       0.       0.
 0.       0.       0.       0.       0.       0.       0.       0.
 0.       0.       0.       0.       0.       0.       0.       0.
 0.       0.       0.       0.       0.       0.       0.       0.
 0.       0.       0.       0.       0.       0.       0.       0.
 0.       0.       0.       0.       0.       0.       0.       0.
 0.       0.       0.       0.       0.       0.       0.       0.
 0.       0.       0.       0.       0.       0.       0.       0.
 0.       0.       0.       0.       0.       0.       0.       0.
 0.       0.       0.       0.       0.       0.       0.       0.
 0.       0.       0.       0.       0.       0.       0.       0.
 0.       0.       0.       0.       0.       0.       0.       0.
 0.       0.       0.       0.       0.       0.       0.       0.
 0.       0.       0.       0.       0.       0.       0.       0.
 0.       0.       0.       0.       0.       0.       0.       0.      ]
get_k_kpts: build K from symm mo coeff
get_k_kpts: rank(dm) = 372 / 952
max_memory 406116 MB, blksize 240
    CPU time for get_k_kpts: make_kpt ki>=kj (0,*)   3957.58 sec, wall time     94.23 sec
    CPU time for buf1      85.84 sec, wall time      19.03 sec
    CPU time for ct11    1281.79 sec, wall time      21.00 sec
    CPU time for ct12    2579.82 sec, wall time      53.10 sec
    CPU time for buf2       0.00 sec, wall time       0.00 sec
    CPU time for ct21       0.00 sec, wall time       0.00 sec
    CPU time for ct22       0.00 sec, wall time       0.00 sec
    CPU time for load      10.02 sec, wall time       1.07 sec
    CPU time for get_k_kpts   3957.88 sec, wall time     94.24 sec
max_memory 406102 MB, blksize 240
    CPU time for get_j pass 1     97.14 sec, wall time     29.47 sec
max_memory 406102 MB, blksize 240
    CPU time for get_j pass 2    241.03 sec, wall time     13.95 sec
    CPU time for get_j    342.96 sec, wall time     43.49 sec
    CPU time for vj and vk   4300.86 sec, wall time    137.75 sec
E1 = -4852.743798383954  E_coul = 6074.786080888545
    Total E(T) = 280.72239128057  Free energy = 275.32781729086  E0 = 278.025104285715
cycle= 2 E= 280.72239128057  delta_E= 2.13e+03  |g|= 91.5  |ddm|= 1.08e+04
    CPU time for cycle= 2   4331.63 sec, wall time    138.26 sec
    Fermi level 0.314497  Sum mo_occ_kpts = 464.0  should equal nelec = 464
    sigma = 0.1  Optimized mu = 0.312958273508  entropy = 114.593995883
     k-point                  mo_energy/mo_occ
   0 ( 0.000  0.000  0.000)   [-8.764666 -8.757115 -8.756539 -8.748222 -8.726193 -8.718269 -8.717748
 -8.709001 -6.790317 -6.790238 -6.784431 -6.784308 -6.783705 -6.783587
 -6.779105 -6.776485 -6.776349 -6.773384 -6.772637 -6.765543 -6.751989
 -6.751913 -6.745704 -6.74558  -6.7451   -6.74498  -6.742264 -6.737212
 -6.737085 -6.736166 -6.735535 -6.727815 -3.23175  -3.221731 -3.220638
 -3.208723 -3.208677 -3.203029 -3.201384 -3.200998 -3.200924 -3.196611
 -3.195114 -3.194784 -3.194394 -3.193901 -3.193513 -3.193315 -3.191625
 -3.188712 -3.186388 -3.186281 -3.183309 -3.182038 -3.181722 -3.171714
 -3.170103 -3.165951 -3.163858 -3.163285 -3.163223 -3.15821  -3.157495
 -3.156864 -3.156795 -3.15587  -3.155785 -3.152988 -3.149716 -3.148172
 -3.148075 -3.142002 -0.986734 -0.957458 -0.923537 -0.922879 -0.898472
 -0.890012 -0.886711 -0.885487 -0.884634 -0.874018 -0.86242  -0.85247
 -0.847013 -0.845132 -0.845047 -0.835154 -0.816289 -0.813227 -0.810957
 -0.808614 -0.80847  -0.787311 -0.785925 -0.774136 -0.767804 -0.736391
 -0.721902 -0.715469 -0.714663 -0.71056  -0.706576 -0.697964 -0.686408
 -0.677456 -0.582214 -0.581289 -0.545981 -0.545004 -0.453722 -0.437974
[...]
 0.       0.       0.       0.       0.       0.       0.       0.
 0.       0.       0.       0.       0.       0.       0.       0.
 0.       0.       0.       0.       0.       0.       0.       0.
 0.       0.       0.       0.       0.       0.       0.       0.      ]
get_k_kpts: build K from symm mo coeff
get_k_kpts: rank(dm) = 592 / 952
max_memory 405971 MB, blksize 240
    CPU time for get_k_kpts: make_kpt ki>=kj (0,*)   6125.97 sec, wall time    135.63 sec
    CPU time for buf1      84.62 sec, wall time      18.28 sec
    CPU time for ct11    2039.60 sec, wall time      37.73 sec
    CPU time for ct12    3992.02 sec, wall time      78.45 sec
    CPU time for buf2       0.00 sec, wall time       0.00 sec
    CPU time for ct21       0.00 sec, wall time       0.00 sec
    CPU time for ct22       0.00 sec, wall time       0.00 sec
    CPU time for load       9.63 sec, wall time       1.14 sec
    CPU time for get_k_kpts   6126.43 sec, wall time    135.64 sec
max_memory 405971 MB, blksize 240
    CPU time for get_j pass 1     95.32 sec, wall time     27.95 sec
max_memory 405971 MB, blksize 240
    CPU time for get_j pass 2    240.10 sec, wall time     12.92 sec
    CPU time for get_j    336.98 sec, wall time     40.89 sec
    CPU time for vj and vk   6463.43 sec, wall time    176.53 sec
E1 = -2685.1295050885087  E_coul = 1224.5767128388027
    Total E(T) = -2401.87268347373  Free energy = -2411.22616758713  E0 = -2406.54942553043
cycle= 38 E= -2401.87268347373  delta_E= 0.000784  |g|= 0.00339  |ddm|= 0.0208
    CPU time for cycle= 38   6483.83 sec, wall time    176.87 sec
    Fermi level 0.322391  Sum mo_occ_kpts = 464.00000000000006  should equal nelec = 464
    sigma = 0.1  Optimized mu = 0.462359469446  entropy = 93.5326088437
     k-point                  mo_energy/mo_occ
   0 ( 0.000  0.000  0.000)   [-4.643685 -4.643627 -4.643607 -4.643563 -4.643552 -4.643538 -4.643523
 -4.643494 -2.857691 -2.857643 -2.857632 -2.857584 -2.857521 -2.857501
 -2.857489 -2.857456 -2.857416 -2.857414 -2.857365 -2.857352 -2.857343
 -2.85733  -2.8573   -2.857292 -2.857287 -2.857282 -2.85728  -2.857268
 -2.857257 -2.857244 -2.857223 -2.857219 -1.467571 -1.467172 -1.467172
 -1.466788 -0.81492  -0.814852 -0.806921 -0.806921 -0.806835 -0.806835
 -0.801404 -0.801346 -0.621801 -0.608773 -0.608772 -0.600826 -0.600825
 -0.599943 -0.589877 -0.589876 -0.587075 -0.587073 -0.583625 -0.58053
 -0.578027 -0.578026 -0.567902 -0.5679   -0.567302 -0.567301 -0.566405
 -0.564638 -0.564637 -0.563442 -0.552428 -0.547354 -0.546935 -0.54475
 -0.54475  -0.544086 -0.544086 -0.514872 -0.514872 -0.514848 -0.514847
 -0.512135 -0.510844 -0.510844 -0.144175 -0.144175 -0.143458 -0.143457
 -0.130312 -0.130312 -0.125136 -0.125053 -0.125053 -0.121285 -0.118954
 -0.118954 -0.117664 -0.117664 -0.114158 -0.110299 -0.108786 -0.108786
 -0.107827 -0.107827 -0.096532 -0.096532 -0.096431 -0.096431  0.019653
  0.026741  0.029328  0.030464  0.037547  0.037549  0.039262  0.039265
  0.039533  0.039535  0.044672  0.045995  0.051031  0.051354  0.051354
  0.057206  0.057206  0.057456  0.057456  0.060837  0.062809  0.062809
  0.071416  0.071417  0.077871  0.077871  0.079892  0.079892  0.081376
  0.081376  0.090216  0.090216  0.090826  0.090826  0.09283   0.099313
  0.100872  0.100879  0.105866  0.106522  0.106522  0.106716  0.107622
  0.10763   0.107645  0.107645  0.11198   0.11198   0.112441  0.112441
  0.113521  0.114386  0.119755  0.129607  0.129608  0.132744  0.135746
  0.135746  0.141028  0.141028  0.144149  0.144149  0.148574  0.152786
  0.15809   0.166571  0.172662  0.172663  0.182124  0.182124  0.18462
  0.184621  0.189805  0.192857  0.192858  0.198516  0.198516  0.199339
  0.200818  0.200819  0.203547  0.203548  0.208283  0.208516  0.208516
  0.209092  0.212609  0.212611  0.216384  0.216385  0.217334  0.217334
  0.219145  0.222871  0.226223  0.227741  0.227742  0.232891  0.239403
  0.239404  0.24023   0.240231  0.241655  0.242274  0.242274  0.246567
  0.250974  0.250975  0.251198  0.251199  0.253385  0.253386  0.256367
  0.256367  0.25648   0.256481  0.266165  0.266165  0.274706  0.274706
  0.275707  0.275707  0.278127  0.280001  0.280002  0.285719  0.322384
  0.322391  0.338244  0.33825   0.478924  0.48015   0.494679  0.494679
  0.566878  0.566878  0.567435  0.59743   0.63258   0.632581  0.63768
  0.652869  0.659071  0.686311  0.690362  0.697777  0.708112  0.714967
  0.714967  0.716855  0.716856  0.720034  0.721196  0.726573  0.726573
  0.727769  0.727769  0.746136  0.746136  0.757633  0.757634  0.767805
  0.767805  0.778824  0.778824  0.797284  0.80001   0.808518  0.808518
  0.809288  0.809288  0.814528  0.814528  0.816354  0.818991  0.818991
  0.820486  0.820486  0.821548  0.821548  0.825841  0.828058  0.828058
  0.832449  0.832449  0.834704  0.834705  0.838122  0.838792  0.838792
  0.842122  0.851344  0.851344  0.854928  0.858318  0.867874  0.875473
  0.875473  0.876455  0.893676  0.893676  0.906205  0.906205  0.909987
  0.909988  0.918843  0.92009   0.92009   0.922861  0.929166  0.929167
  0.937815  0.937816  0.938993  0.938993  0.939996  0.949216  0.952793
  0.963044  0.963044  0.965289  0.974885  0.97868   0.97868   0.986626
  0.993177  0.993177  0.993671  0.997291  1.001402  1.005218  1.005218
  1.014261  1.019767  1.019768  1.023606  1.023606  1.030354  1.036556
  1.036556  1.053364  1.053364  1.053402  1.053432  1.053433  1.064559
  1.073288  1.07329   1.083825  1.086774  1.086774  1.101128  1.101491
  1.101491  1.117563  1.124825  1.124825  1.124944  1.124944  1.126439
  1.126439  1.13335   1.13335   1.143282  1.143282  1.149914  1.168527
  1.168527  1.17216   1.173655  1.173655  1.176031  1.176031  1.176782
  1.176782  1.189843  1.189844  1.190658  1.190658  1.206113  1.206113
  1.210071  1.210071  1.224164  1.224164  1.238364  1.238365  1.24837
  1.264389  1.269085  1.269085  1.279267  1.279267  1.284837  1.284838
  1.308312  1.308313  1.314032  1.314032  1.321572  1.348122  1.353218
  1.3543    1.35895   1.35895   1.359794  1.359797  1.361451  1.361451
  1.373405  1.375252  1.387418  1.387419  1.387984  1.395582  1.40237
  1.40237   1.420403  1.420403  1.428322  1.428323  1.43036   1.43646
  1.43646   1.444798  1.444798  1.448928  1.453332  1.453332  1.46647
  1.482683  1.482684  1.490248  1.525345  1.529263  1.529263  1.529705
  1.529705  1.547865  1.547865  1.554296  1.554296  1.560705  1.573846
  1.578934  1.586303  1.589845  1.589845  1.596814  1.596814  1.609806
  1.609806  1.633784  1.640942  1.640943  1.645735  1.645735  1.648554
  1.648554  1.649973  1.656869  1.656869  1.669429  1.669429  1.700203
  1.716762  1.716762  1.719163  1.729832  1.729832  1.736056  1.741295
  1.741296  1.742212  1.742772  1.745036  1.745534  1.749452  1.749452
  1.781308  1.796727  1.796728  1.798542  1.799987  1.799988  1.813229
  1.813232  1.834131  1.839978  1.839978  1.840576  1.840576  1.858628
  1.858628  1.867341  1.867342  1.880168  1.880169  1.881372  1.881375
  1.883734  1.894726  1.894726  1.897434  1.912706  1.91489   1.91489
  1.928482  1.928483  1.94035   1.94035   1.94182   1.94182   1.949426
  1.949426  1.950557  1.969613  1.98456   1.999431  1.999439  2.008888
  2.014089  2.01409   2.016044  2.016048  2.019753  2.019754  2.024324
  2.024324  2.030976  2.030976  2.045038  2.045473  2.046254  2.053699
  2.0537    2.055396  2.074753  2.085543  2.085543  2.093346  2.095457
  2.095459  2.098992  2.098993  2.108926  2.111631  2.111631  2.116113
  2.116113  2.116178  2.116179  2.123799  2.1238    2.157641  2.157641
  2.179333  2.189441  2.19178   2.191781  2.213064  2.218011  2.218011
  2.228011  2.228011  2.231562  2.231562  2.245768  2.247203  2.267333
  2.272825  2.272826  2.286852  2.286852  2.287509  2.29996   2.299961
  2.300704  2.300704  2.314399  2.3144    2.322066  2.322066  2.326357
  2.339114  2.339114  2.352746  2.358146  2.380754  2.405959  2.40596
  2.410355  2.410355  2.411095  2.448314  2.456449  2.456449  2.460015
  2.460015  2.462394  2.462394  2.501464  2.517513  2.517513  2.518825
  2.518825  2.521951  2.521954  2.52975   2.52975   2.53206   2.544921
  2.544926  2.547289  2.54729   2.604302  2.604304  2.606459  2.606459
  2.607845  2.616045  2.616047  2.659615  2.672528  2.681091  2.691182
  2.691182  2.696928  2.696931  2.703529  2.703529  2.707597  2.707597
  2.709575  2.709576  2.725803  2.725805  2.747163  2.748082  2.748082
  2.759872  2.759873  2.761083  2.761083  2.765472  2.765483  2.778722
  2.778722  2.798991  2.798991  2.815541  2.815542  2.825561  2.840413
  2.856057  2.856656  2.860473  2.860473  2.865206  2.865996  2.865996
  2.873113  2.873113  2.881325  2.890201  2.890201  2.902535  2.902536
  2.910864  2.914914  2.948251  2.948374  2.948376  2.952236  2.961021
  2.961024  2.973832  2.98388   2.98388   2.987315  2.987968  2.987968
  2.99561   2.99561   3.003894  3.003894  3.005881  3.005882  3.012023
  3.012023  3.03142   3.044702  3.04471   3.090925  3.090925  3.101463
  3.101464  3.107045  3.107045  3.114882  3.114886  3.11737   3.124914
  3.124914  3.191951  3.202423  3.219788  3.233185  3.233187  3.271378
  3.277265  3.283713  3.295532  3.295532  3.345867  3.352374  3.42293
  3.422935  3.490457  3.492563  3.503634  3.503696  3.504396  3.504397
  3.525862  3.527045  3.528033  3.528034  3.530592  3.530593  3.57402
  3.57402   3.575407  3.575408  3.581707  3.601507  3.601508  3.608572
  3.612094  3.612095  3.616698  3.616698  3.620275  3.620469  3.62047
  3.624366  3.624743  3.624744  3.637419  3.63742   3.648798  3.648799
  3.662406  3.662662  3.662662  3.665105  3.671221  3.671222  3.675362
  3.675363  3.685164  3.685164  3.692164  3.692165  3.697683  3.697683
  3.699743  3.699744  3.700084  3.700085  3.706832  3.709221  3.709222
  3.716963  3.716963  3.71938   3.722911  3.722912  3.724685  3.724685
  3.730189  3.730189  3.749933  3.755543  3.755544  3.755626  3.755626
  3.756447  3.756448  3.760163  3.762987  3.762988  3.764399  3.7644
  3.766154  3.766154  3.781192  3.785795  3.785795  3.786994  3.787933
  3.788135  3.788135  3.793738  3.802415  3.802416  3.832543  3.832544
  3.845917  3.848053  3.856759  3.864042  3.864043  3.868451  3.868452
  3.886618  3.886619  3.904655  3.906525  3.920487  3.920488  3.921372
  3.970883  3.970884  3.977296  3.977298  3.981486  3.981486  3.981568
  3.991978  3.991985  4.055858  4.055859  4.090922  4.090923  4.116218
  4.12249   4.176957  4.176958  4.207923  4.207923  4.214014  4.220548
  4.22055   4.227918  4.227921  4.241304  4.241305  4.258052  4.342225
  4.342225  4.469211  4.469212  4.488546  4.510478  4.510478  4.525582
  4.551815  4.551816  4.597929  4.607505  4.610798  4.610805  4.620604
  4.67566   4.740139  4.955831  4.955831  5.488097  5.488109  5.54948
  5.550302  5.979514  5.981431  5.981507  5.984177  5.984177  5.989824
  5.99248   5.99248   5.992985  5.992986  5.999846  5.999847  6.000383
  6.000385  6.010878  6.013722  6.013722  6.018068  6.018068  6.023519
  6.028147  6.031092  6.031092  6.031572  6.032743  6.032746  6.034106
  6.034106  6.035969  6.03751   6.03751   6.037711  6.037712  6.047143
  6.047183  6.099834  6.099836  6.21417   6.247818  6.247819  6.277194
  6.277194  6.323643  6.323643  6.389639  6.389639  6.401532  6.401533
  6.434594  6.434594  6.468125  6.468125  6.477389  6.477389  6.556336
  6.556336  9.789456  9.802484  9.802484  9.807912  9.901562  9.901563
 10.012963 10.047127 10.047127 10.053788 10.092914 10.179252 13.381141
 13.381144 13.531146 14.178351 14.225265 14.225273 14.381375 14.388617]
                              [2.       2.       2.       2.       2.       2.       2.       2.
 2.       2.       2.       2.       2.       2.       2.       2.
 2.       2.       2.       2.       2.       2.       2.       2.
 2.       2.       2.       2.       2.       2.       2.       2.
 2.       2.       2.       2.       1.999994 1.999994 1.999994 1.999994
 1.999994 1.999994 1.999994 1.999994 1.999961 1.999955 1.999955 1.999952
 1.999952 1.999951 1.999946 1.999946 1.999945 1.999945 1.999943 1.999941
 1.999939 1.999939 1.999933 1.999933 1.999933 1.999933 1.999932 1.999931
 1.999931 1.99993  1.999922 1.999918 1.999917 1.999915 1.999915 1.999915
 1.999915 1.999886 1.999886 1.999886 1.999886 1.999883 1.999881 1.999881
 1.995367 1.995367 1.995334 1.995334 1.99468  1.99468  1.994398 1.994393
 1.994393 1.994179 1.994042 1.994042 1.993965 1.993965 1.99375  1.993505
 1.993406 1.993406 1.993343 1.993343 1.99255  1.99255  1.992542 1.992542
 1.976383 1.97467  1.974015 1.973722 1.971821 1.97182  1.97134  1.97134
 1.971264 1.971263 1.969771 1.969375 1.967818 1.967716 1.967716 1.965804
 1.965804 1.965719 1.965719 1.964561 1.963868 1.963868 1.960685 1.960684
 1.958118 1.958118 1.957281 1.957281 1.956656 1.956656 1.952745 1.952745
 1.952463 1.952463 1.951524 1.948361 1.947571 1.947567 1.94496  1.944608
 1.944607 1.944503 1.944012 1.944008 1.944    1.944    1.941591 1.941591
 1.941329 1.941329 1.940711 1.940211 1.937017 1.930722 1.930722 1.928594
 1.926497 1.926497 1.922665 1.922664 1.920311 1.920311 1.916855 1.913433
 1.908932 1.90127  1.895394 1.895393 1.885606 1.885606 1.882884 1.882883
 1.877034 1.873465 1.873464 1.86659  1.866589 1.865561 1.863694 1.863693
 1.860187 1.860185 1.853901 1.853586 1.853585 1.852802 1.847933 1.84793
 1.842543 1.842542 1.841161 1.84116  1.838491 1.832872 1.827666 1.82526
 1.825259 1.816871 1.805747 1.805745 1.804291 1.804289 1.80176  1.800653
 1.800652 1.792815 1.784485 1.784483 1.784053 1.784053 1.779804 1.779803
 1.773893 1.773893 1.773666 1.773665 1.753487 1.753487 1.734425 1.734425
 1.732112 1.73211  1.726447 1.721991 1.72199  1.70802  1.604288 1.604267
 1.55153  1.551509 0.917366 0.91128  0.839793 0.839793 0.520303 0.520302
 0.51816  0.411512 0.308354 0.308352 0.295288 0.259065 0.245399 0.192516
 0.185581 0.173469 0.15778  0.1481   0.1481   0.145532 0.145531 0.1413
 0.139782 0.132951 0.132951 0.131474 0.131474 0.110634 0.110634 0.099215
 0.099214 0.090051 0.090051 0.081036 0.081036 0.06784  0.066076 0.06085
 0.06085  0.060398 0.060398 0.057403 0.057403 0.056394 0.054966 0.054966
 0.054173 0.054173 0.053616 0.053616 0.051421 0.050322 0.050322 0.048212
 0.048212 0.047162 0.047162 0.045614 0.045316 0.045316 0.043864 0.040078
 0.040078 0.038694 0.037428 0.034075 0.031621 0.031621 0.031317 0.026428
 0.026428 0.023352 0.023352 0.022495 0.022495 0.020609 0.020356 0.020356
 0.019805 0.018606 0.018606 0.017078 0.017078 0.016879 0.016879 0.016712
 0.015252 0.01472  0.013295 0.013295 0.013002 0.011819 0.011382 0.011382
 0.010517 0.009853 0.009853 0.009805 0.009458 0.009079 0.00874  0.00874
 0.007988 0.007561 0.007561 0.007278 0.007278 0.006804 0.006396 0.006396
 0.005409 0.005409 0.005407 0.005406 0.005406 0.004838 0.004434 0.004434
 0.003992 0.003876 0.003876 0.003359 0.003346 0.003346 0.00285  0.002651
 0.002651 0.002648 0.002648 0.002609 0.002609 0.002435 0.002435 0.002205
 0.002205 0.002063 0.001713 0.001713 0.001652 0.001628 0.001628 0.001589
 0.001589 0.001578 0.001578 0.001385 0.001385 0.001373 0.001373 0.001177
 0.001177 0.001131 0.001131 0.000983 0.000983 0.000853 0.000853 0.000771
 0.000657 0.000627 0.000627 0.000566 0.000566 0.000536 0.000536 0.000424
 0.000424 0.0004   0.0004   0.000371 0.000285 0.00027  0.000267 0.000255
 0.000255 0.000253 0.000253 0.000249 0.000249 0.000221 0.000217 0.000192
 0.000192 0.000191 0.000177 0.000165 0.000165 0.000138 0.000138 0.000128
 0.000128 0.000125 0.000118 0.000118 0.000108 0.000108 0.000104 0.000099
 0.000099 0.000087 0.000074 0.000074 0.000069 0.000048 0.000047 0.000047
 0.000046 0.000046 0.000039 0.000039 0.000036 0.000036 0.000034 0.00003
 0.000028 0.000026 0.000025 0.000025 0.000024 0.000024 0.000021 0.000021
 0.000016 0.000015 0.000015 0.000015 0.000015 0.000014 0.000014 0.000014
 0.000013 0.000013 0.000011 0.000011 0.000008 0.000007 0.000007 0.000007
 0.000006 0.000006 0.000006 0.000006 0.000006 0.000006 0.000005 0.000005
 0.000005 0.000005 0.000005 0.000004 0.000003 0.000003 0.000003 0.000003
 0.000003 0.000003 0.000003 0.000002 0.000002 0.000002 0.000002 0.000002
 0.000002 0.000002 0.000002 0.000002 0.000001 0.000001 0.000001 0.000001
 0.000001 0.000001 0.000001 0.000001 0.000001 0.000001 0.000001 0.000001
 0.000001 0.000001 0.000001 0.000001 0.000001 0.000001 0.000001 0.000001
 0.000001 0.       0.       0.       0.       0.       0.       0.
 0.       0.       0.       0.       0.       0.       0.       0.
 0.       0.       0.       0.       0.       0.       0.       0.
 0.       0.       0.       0.       0.       0.       0.       0.
 0.       0.       0.       0.       0.       0.       0.       0.
 0.       0.       0.       0.       0.       0.       0.       0.
 0.       0.       0.       0.       0.       0.       0.       0.
 0.       0.       0.       0.       0.       0.       0.       0.
 0.       0.       0.       0.       0.       0.       0.       0.
 0.       0.       0.       0.       0.       0.       0.       0.
 0.       0.       0.       0.       0.       0.       0.       0.
 0.       0.       0.       0.       0.       0.       0.       0.
 0.       0.       0.       0.       0.       0.       0.       0.
 0.       0.       0.       0.       0.       0.       0.       0.
 0.       0.       0.       0.       0.       0.       0.       0.
 0.       0.       0.       0.       0.       0.       0.       0.
 0.       0.       0.       0.       0.       0.       0.       0.
 0.       0.       0.       0.       0.       0.       0.       0.
 0.       0.       0.       0.       0.       0.       0.       0.
 0.       0.       0.       0.       0.       0.       0.       0.
 0.       0.       0.       0.       0.       0.       0.       0.
 0.       0.       0.       0.       0.       0.       0.       0.
 0.       0.       0.       0.       0.       0.       0.       0.
 0.       0.       0.       0.       0.       0.       0.       0.
 0.       0.       0.       0.       0.       0.       0.       0.
 0.       0.       0.       0.       0.       0.       0.       0.
 0.       0.       0.       0.       0.       0.       0.       0.
 0.       0.       0.       0.       0.       0.       0.       0.
 0.       0.       0.       0.       0.       0.       0.       0.
 0.       0.       0.       0.       0.       0.       0.       0.
 0.       0.       0.       0.       0.       0.       0.       0.
 0.       0.       0.       0.       0.       0.       0.       0.
 0.       0.       0.       0.       0.       0.       0.       0.
 0.       0.       0.       0.       0.       0.       0.       0.
 0.       0.       0.       0.       0.       0.       0.       0.
 0.       0.       0.       0.       0.       0.       0.       0.
 0.       0.       0.       0.       0.       0.       0.       0.
 0.       0.       0.       0.       0.       0.       0.       0.
 0.       0.       0.       0.       0.       0.       0.       0.
 0.       0.       0.       0.       0.       0.       0.       0.
 0.       0.       0.       0.       0.       0.       0.       0.
 0.       0.       0.       0.       0.       0.       0.       0.
 0.       0.       0.       0.       0.       0.       0.       0.
 0.       0.       0.       0.       0.       0.       0.       0.
 0.       0.       0.       0.       0.       0.       0.       0.
 0.       0.       0.       0.       0.       0.       0.       0.
 0.       0.       0.       0.       0.       0.       0.       0.
 0.       0.       0.       0.       0.       0.       0.       0.
 0.       0.       0.       0.       0.       0.       0.       0.
 0.       0.       0.       0.       0.       0.       0.       0.
 0.       0.       0.       0.       0.       0.       0.       0.
 0.       0.       0.       0.       0.       0.       0.       0.
 0.       0.       0.       0.       0.       0.       0.       0.
 0.       0.       0.       0.       0.       0.       0.       0.      ]
get_k_kpts: build K from symm mo coeff
get_k_kpts: rank(dm) = 592 / 952
max_memory 405971 MB, blksize 240
